/*--------------------------------*- C++ -*----------------------------------*\
| =========                 |                                                 |
| \\      /  F ield         | OpenFOAM: The Open Source CFD Toolbox           |
|  \\    /   O peration     | Version:  2206                                  |
|   \\  /    A nd           | Website:  www.openfoam.com                      |
|    \\/     M anipulation  |                                                 |
\*---------------------------------------------------------------------------*/
FoamFile
{
    version     2.0;
    format      ascii;
    arch        "LSB;label=32;scalar=64";
    class       volScalarField;
    location    "150";
    object      alphat;
}
// * * * * * * * * * * * * * * * * * * * * * * * * * * * * * * * * * * * * * //

dimensions      [1 -1 -1 0 0 0 0];

internalField   nonuniform List<scalar> 
93840
(
1.70535e-07
1.34301e-08
1.03427e-07
6.48618e-08
1.70682e-08
4.62424e-08
2.01893e-08
6.01683e-08
2.28525e-08
2.52803e-08
4.40879e-08
1.68719e-08
5.7277e-08
1.97309e-08
4.23735e-08
2.72482e-08
5.2212e-08
2.81964e-08
5.08738e-08
1.42379e-08
1.82833e-08
3.27166e-08
1.81291e-08
4.39833e-08
4.67433e-08
4.11367e-08
2.82878e-08
2.83052e-08
2.4749e-08
4.34732e-08
2.67441e-08
3.41203e-08
2.67927e-08
3.70695e-08
2.88998e-08
6.7622e-09
3.75918e-08
1.86213e-08
3.37927e-08
3.4122e-08
3.15845e-08
2.97323e-08
3.45819e-08
2.13209e-08
4.35523e-08
2.22451e-08
4.32612e-08
2.74828e-08
2.60752e-08
2.672e-08
2.93894e-08
2.72727e-08
3.1316e-08
1.51961e-08
9.3557e-09
3.69857e-08
2.26487e-08
3.08124e-08
2.81695e-08
2.94159e-08
2.80113e-08
3.04107e-08
2.60575e-08
2.82457e-08
3.12969e-08
4.7933e-08
2.57145e-08
4.11061e-08
2.95052e-08
2.75681e-08
2.74576e-08
2.96742e-08
2.47576e-08
2.69873e-08
2.32882e-08
2.56894e-08
2.43546e-08
1.25254e-08
3.44993e-08
2.35204e-08
2.96728e-08
2.92641e-08
3.19415e-08
2.99389e-08
2.8217e-08
2.4644e-08
2.85238e-08
2.54017e-08
2.63228e-08
2.58248e-08
4.90048e-08
2.64491e-08
3.76804e-08
3.07935e-08
2.85005e-08
2.80228e-08
3.08664e-08
2.33464e-08
2.99246e-08
2.47826e-08
2.64225e-08
2.62962e-08
2.97319e-08
2.36667e-08
1.56233e-08
3.53445e-08
2.54547e-08
2.85631e-08
2.98052e-08
3.17194e-08
2.91285e-08
2.81416e-08
2.71487e-08
2.75402e-08
2.57148e-08
2.80785e-08
2.60861e-08
2.99146e-08
2.46915e-08
4.26968e-08
2.68594e-08
3.6793e-08
3.24675e-08
2.94175e-08
2.88531e-08
3.09712e-08
2.46608e-08
2.85049e-08
2.47784e-08
2.87014e-08
2.61745e-08
2.63217e-08
2.6936e-08
3.05051e-08
2.36409e-08
1.84222e-08
3.30079e-08
2.65185e-08
2.88204e-08
2.99748e-08
3.09429e-08
2.80923e-08
2.88698e-08
2.53308e-08
2.87926e-08
2.65358e-08
2.74081e-08
2.61208e-08
2.86689e-08
2.56366e-08
2.98803e-08
2.30554e-08
3.74965e-08
2.68662e-08
3.51834e-08
3.30972e-08
3.0346e-08
3.02935e-08
3.18933e-08
2.52616e-08
2.86457e-08
2.60008e-08
2.79241e-08
2.59506e-08
2.78094e-08
2.66952e-08
2.71124e-08
2.74327e-08
3.02024e-08
2.25303e-08
2.05277e-08
3.4396e-08
2.85135e-08
2.84287e-08
3.01387e-08
3.1698e-08
2.91843e-08
2.9762e-08
2.58179e-08
2.86125e-08
2.4892e-08
2.8076e-08
2.73846e-08
2.77853e-08
2.54529e-08
2.78641e-08
2.53151e-08
3.04818e-08
2.25293e-08
3.6921e-08
2.28138e-08
3.32261e-08
3.29334e-08
3.09794e-08
3.08218e-08
3.16903e-08
2.65853e-08
2.98638e-08
2.53278e-08
2.85712e-08
2.60457e-08
2.79009e-08
2.6178e-08
2.85128e-08
2.67047e-08
2.58808e-08
2.6724e-08
3.04282e-08
2.2906e-08
2.33042e-08
4.10288e-08
2.98487e-08
2.88424e-08
3.0339e-08
3.15089e-08
2.98581e-08
3.08288e-08
2.66998e-08
2.9826e-08
2.59252e-08
2.8308e-08
2.5529e-08
2.77526e-08
2.67341e-08
2.77096e-08
2.54357e-08
2.7859e-08
2.61352e-08
2.94695e-08
2.28805e-08
3.69213e-08
2.40242e-08
3.15685e-08
3.22785e-08
3.10641e-08
3.08118e-08
3.24348e-08
2.80461e-08
2.96165e-08
2.61185e-08
2.9709e-08
2.5393e-08
2.84478e-08
2.55064e-08
2.73356e-08
2.62076e-08
2.85875e-08
2.671e-08
2.63683e-08
2.6738e-08
2.94182e-08
2.26413e-08
2.34898e-08
4.06146e-08
3.00122e-08
2.8522e-08
3.02194e-08
3.09669e-08
3.04237e-08
3.17774e-08
2.7169e-08
2.93707e-08
2.55048e-08
2.93285e-08
2.53582e-08
2.87024e-08
2.55256e-08
2.7755e-08
2.66461e-08
2.7645e-08
2.5394e-08
2.70268e-08
2.5229e-08
3.02833e-08
2.23436e-08
3.57507e-08
2.64119e-08
3.03855e-08
3.31491e-08
3.1506e-08
3.11088e-08
3.27151e-08
2.94648e-08
3.03247e-08
2.78233e-08
2.95363e-08
2.65665e-08
2.94552e-08
2.57827e-08
2.76825e-08
2.60083e-08
2.76273e-08
2.62389e-08
2.77818e-08
2.69694e-08
2.61599e-08
2.65605e-08
2.94294e-08
2.21322e-08
2.57454e-08
3.8872e-08
3.04406e-08
2.7964e-08
3.03163e-08
3.14198e-08
3.11406e-08
3.25814e-08
2.71833e-08
3.1043e-08
2.63881e-08
2.94542e-08
2.5688e-08
2.88524e-08
2.47878e-08
2.86623e-08
2.54117e-08
2.73715e-08
2.62106e-08
2.75834e-08
2.45359e-08
2.72528e-08
2.51589e-08
3.04233e-08
2.17929e-08
2.95146e-08
2.7652e-08
3.0543e-08
3.33641e-08
3.18349e-08
3.13339e-08
3.30497e-08
3.09194e-08
3.23121e-08
2.90424e-08
2.93472e-08
2.78054e-08
2.9284e-08
2.70692e-08
2.95364e-08
2.56718e-08
2.78221e-08
2.60517e-08
2.75803e-08
2.62786e-08
2.72272e-08
2.70073e-08
2.61748e-08
2.59105e-08
2.9313e-08
2.16263e-08
2.80153e-08
3.69555e-08
3.09884e-08
2.78516e-08
3.0456e-08
3.19348e-08
3.02944e-08
3.26144e-08
2.84583e-08
3.02254e-08
2.67374e-08
3.0386e-08
2.60801e-08
2.9558e-08
2.48907e-08
2.93018e-08
2.47448e-08
2.81376e-08
2.50417e-08
2.70237e-08
2.57876e-08
2.76272e-08
2.48076e-08
2.75579e-08
2.53422e-08
2.86705e-08
2.21743e-08
3.0185e-08
2.82605e-08
2.98637e-08
3.22577e-08
3.15005e-08
3.14188e-08
3.22228e-08
2.99286e-08
3.296e-08
2.97299e-08
3.10034e-08
2.80832e-08
2.96156e-08
2.62614e-08
2.88209e-08
2.64675e-08
2.92311e-08
2.60281e-08
2.76294e-08
2.54901e-08
2.6635e-08
2.54219e-08
2.71238e-08
2.70056e-08
2.67578e-08
2.56616e-08
2.82963e-08
2.17961e-08
2.86006e-08
3.55647e-08
3.10663e-08
2.74537e-08
3.02338e-08
3.13812e-08
2.92984e-08
3.26501e-08
2.91062e-08
3.17849e-08
2.8098e-08
3.12519e-08
2.67429e-08
3.04945e-08
2.63066e-08
2.97841e-08
2.47254e-08
2.87473e-08
2.48707e-08
2.76473e-08
2.5439e-08
2.72923e-08
2.57023e-08
2.77631e-08
2.48569e-08
2.75981e-08
2.53675e-08
2.82667e-08
2.1624e-08
2.94451e-08
2.91845e-08
2.93036e-08
3.11306e-08
3.06725e-08
3.11802e-08
3.17471e-08
3.05371e-08
3.3393e-08
2.84619e-08
3.25695e-08
2.83334e-08
3.06702e-08
2.70409e-08
3.01914e-08
2.56641e-08
2.95287e-08
2.61297e-08
2.94651e-08
2.62638e-08
2.73578e-08
2.48251e-08
2.73744e-08
2.51196e-08
2.73196e-08
2.73222e-08
2.63869e-08
2.54688e-08
2.8349e-08
2.13438e-08
2.8637e-08
3.46106e-08
3.13103e-08
2.72606e-08
2.98954e-08
3.12572e-08
2.82951e-08
3.23178e-08
2.86151e-08
3.32182e-08
2.77736e-08
3.161e-08
2.80032e-08
3.08468e-08
2.68939e-08
3.04133e-08
2.6348e-08
3.08181e-08
2.4792e-08
2.91133e-08
2.50095e-08
2.76356e-08
2.48186e-08
2.75518e-08
2.5371e-08
2.82448e-08
2.42227e-08
2.68633e-08
2.51787e-08
2.85149e-08
2.12846e-08
3.04053e-08
2.95372e-08
2.88783e-08
3.03251e-08
2.96032e-08
3.00425e-08
3.08341e-08
2.92928e-08
3.237e-08
2.79394e-08
3.3187e-08
2.90722e-08
3.19617e-08
2.81556e-08
3.07819e-08
2.65131e-08
3.11899e-08
2.61234e-08
3.00761e-08
2.67806e-08
2.97313e-08
2.56657e-08
2.7554e-08
2.41971e-08
2.78923e-08
2.55369e-08
2.73675e-08
2.70521e-08
2.65245e-08
2.50351e-08
2.8354e-08
2.16232e-08
2.97389e-08
3.34443e-08
3.10001e-08
2.75529e-08
2.94069e-08
3.10727e-08
2.79825e-08
3.16069e-08
2.81841e-08
3.23378e-08
2.76629e-08
3.19246e-08
2.79491e-08
3.1293e-08
2.79961e-08
3.03957e-08
2.66354e-08
3.00633e-08
2.6521e-08
3.09544e-08
2.49101e-08
2.93581e-08
2.5004e-08
2.82589e-08
2.46735e-08
2.78973e-08
2.54934e-08
2.86816e-08
2.42725e-08
2.68478e-08
2.55101e-08
2.85134e-08
2.14011e-08
3.07268e-08
2.92731e-08
2.852e-08
3.08614e-08
2.91334e-08
2.89979e-08
3.07444e-08
2.8698e-08
3.18293e-08
2.73997e-08
3.20988e-08
2.8232e-08
3.23258e-08
2.88444e-08
3.03287e-08
2.81223e-08
3.05816e-08
2.63326e-08
3.11188e-08
2.67195e-08
3.03151e-08
2.65995e-08
2.99653e-08
2.57076e-08
2.73119e-08
2.42426e-08
2.78739e-08
2.57331e-08
2.68782e-08
2.68499e-08
2.65734e-08
2.47987e-08
2.76765e-08
2.12841e-08
3.00528e-08
3.20224e-08
3.04107e-08
2.8588e-08
3.00277e-08
3.10686e-08
2.89107e-08
3.09642e-08
2.82487e-08
3.0866e-08
2.74917e-08
3.16814e-08
2.77372e-08
3.17476e-08
2.80685e-08
2.97932e-08
2.76783e-08
2.98247e-08
2.65107e-08
3.0158e-08
2.67189e-08
3.11951e-08
2.51484e-08
2.96877e-08
2.53297e-08
2.86246e-08
2.48613e-08
2.79432e-08
2.55702e-08
2.85997e-08
2.44995e-08
2.78878e-08
2.52852e-08
2.84801e-08
2.15887e-08
3.23999e-08
2.90845e-08
2.79385e-08
3.03744e-08
2.88961e-08
2.8187e-08
3.02453e-08
2.82098e-08
3.25251e-08
2.61304e-08
3.27502e-08
2.72993e-08
3.20627e-08
2.84434e-08
3.12908e-08
2.92519e-08
3.04878e-08
2.77215e-08
3.05101e-08
2.6402e-08
3.10204e-08
2.68572e-08
3.00853e-08
2.61107e-08
2.98302e-08
2.54021e-08
2.77619e-08
2.44991e-08
2.77006e-08
2.54904e-08
2.75507e-08
2.60644e-08
2.70385e-08
2.51472e-08
2.84457e-08
2.12177e-08
3.12339e-08
3.11174e-08
3.02668e-08
3.00838e-08
3.04654e-08
3.03964e-08
2.8426e-08
3.0465e-08
2.82677e-08
2.9966e-08
2.72883e-08
3.07397e-08
2.75146e-08
3.15723e-08
2.78978e-08
3.08521e-08
2.80899e-08
2.99082e-08
2.76032e-08
2.98153e-08
2.66547e-08
3.05317e-08
2.70229e-08
3.07987e-08
2.53856e-08
3.02435e-08
2.4972e-08
2.84009e-08
2.44348e-08
2.8114e-08
2.56731e-08
2.85873e-08
2.43408e-08
2.85642e-08
2.50673e-08
2.90425e-08
2.11339e-08
3.29074e-08
2.89997e-08
2.72367e-08
2.99966e-08
2.82857e-08
2.75554e-08
3.00701e-08
2.81342e-08
3.34751e-08
2.6081e-08
3.29834e-08
2.64952e-08
3.21434e-08
2.78495e-08
3.13185e-08
2.89627e-08
3.09679e-08
2.82423e-08
2.98427e-08
2.76898e-08
3.03017e-08
2.6447e-08
3.1122e-08
2.66913e-08
3.02315e-08
2.61109e-08
2.94448e-08
2.54376e-08
2.78808e-08
2.43144e-08
2.75328e-08
2.53064e-08
2.77847e-08
2.55553e-08
2.73629e-08
2.45185e-08
2.9645e-08
2.10247e-08
3.24982e-08
3.07461e-08
3.07443e-08
3.12431e-08
3.08589e-08
3.04935e-08
2.86578e-08
3.14007e-08
2.90764e-08
3.06114e-08
2.73385e-08
2.97645e-08
2.77646e-08
3.08852e-08
2.80166e-08
3.0741e-08
2.82311e-08
3.05519e-08
2.80803e-08
2.97947e-08
2.73724e-08
3.00754e-08
2.68792e-08
3.07619e-08
2.70732e-08
2.99832e-08
2.52935e-08
3.01964e-08
2.46611e-08
2.83959e-08
2.47196e-08
2.77567e-08
2.52129e-08
2.89539e-08
2.46247e-08
2.82917e-08
2.45155e-08
2.96213e-08
2.10556e-08
3.3003e-08
2.91932e-08
2.73783e-08
3.08365e-08
2.8958e-08
2.82415e-08
3.04722e-08
2.90806e-08
3.28455e-08
2.85742e-08
3.36031e-08
2.56392e-08
3.22749e-08
2.68306e-08
3.12231e-08
2.82858e-08
3.04245e-08
2.86759e-08
3.04728e-08
2.78567e-08
2.94603e-08
2.7257e-08
3.03681e-08
2.62074e-08
3.02957e-08
2.77343e-08
3.05943e-08
2.67843e-08
2.91615e-08
2.56675e-08
2.77623e-08
2.45379e-08
2.74814e-08
2.51021e-08
2.7973e-08
2.57634e-08
2.78972e-08
2.46108e-08
3.01147e-08
2.05582e-08
3.3054e-08
3.03e-08
3.1009e-08
3.2187e-08
3.09566e-08
3.08282e-08
2.96537e-08
3.21883e-08
2.97288e-08
3.31413e-08
2.80654e-08
3.14364e-08
2.79817e-08
3.02452e-08
2.77419e-08
3.09817e-08
2.83473e-08
3.03949e-08
2.79742e-08
3.02427e-08
2.7712e-08
2.95561e-08
2.71313e-08
3.04684e-08
2.72924e-08
3.03528e-08
2.70138e-08
3.01256e-08
2.54704e-08
3.00154e-08
2.49841e-08
2.8088e-08
2.4724e-08
2.80473e-08
2.5008e-08
2.94998e-08
2.38487e-08
2.83226e-08
2.45637e-08
3.02955e-08
2.03169e-08
3.36633e-08
2.95115e-08
2.73878e-08
3.09852e-08
2.88e-08
2.85526e-08
3.07905e-08
3.08205e-08
3.23595e-08
3.02551e-08
3.33373e-08
2.83607e-08
3.12363e-08
2.66114e-08
3.07392e-08
2.70583e-08
3.08189e-08
2.7511e-08
3.05236e-08
2.82296e-08
2.99029e-08
2.75857e-08
2.95279e-08
2.68966e-08
3.03546e-08
2.70365e-08
3.07067e-08
2.71403e-08
3.00907e-08
2.64492e-08
2.88316e-08
2.55121e-08
2.78794e-08
2.42735e-08
2.73948e-08
2.51472e-08
2.80409e-08
2.62292e-08
2.84135e-08
2.43921e-08
3.13671e-08
2.02733e-08
3.2993e-08
2.98153e-08
3.05911e-08
3.27849e-08
3.15025e-08
3.18821e-08
3.0415e-08
3.32162e-08
2.92926e-08
3.40939e-08
2.89697e-08
3.31387e-08
2.81663e-08
3.17209e-08
2.7559e-08
3.02019e-08
2.78109e-08
3.11354e-08
2.81892e-08
3.0096e-08
2.77186e-08
2.96878e-08
2.73992e-08
2.97834e-08
2.70511e-08
3.01235e-08
2.76642e-08
3.04165e-08
2.75187e-08
2.97162e-08
2.54958e-08
2.97778e-08
2.49949e-08
2.80087e-08
2.46594e-08
2.79555e-08
2.48615e-08
3.07619e-08
2.31994e-08
2.90212e-08
2.43693e-08
3.04903e-08
2.02607e-08
3.39421e-08
2.97067e-08
2.69128e-08
3.12823e-08
2.87511e-08
2.93203e-08
3.05844e-08
3.15495e-08
3.15063e-08
2.97097e-08
3.28628e-08
3.02038e-08
3.25627e-08
2.94364e-08
3.14876e-08
2.69499e-08
3.0901e-08
2.71787e-08
3.06308e-08
2.76237e-08
2.99363e-08
2.81076e-08
2.98713e-08
2.74749e-08
2.9721e-08
2.70463e-08
3.02274e-08
2.71084e-08
3.05068e-08
2.76639e-08
3.02408e-08
2.65059e-08
2.89655e-08
2.57567e-08
2.74499e-08
2.4254e-08
2.73326e-08
2.4773e-08
2.82743e-08
2.61337e-08
2.82363e-08
2.42807e-08
3.08801e-08
2.01454e-08
3.24932e-08
2.91749e-08
3.09642e-08
3.31178e-08
3.21708e-08
3.25193e-08
2.98861e-08
3.35035e-08
2.93068e-08
3.31911e-08
2.91191e-08
3.45228e-08
2.85511e-08
3.32162e-08
2.80521e-08
3.10895e-08
2.75625e-08
3.02408e-08
2.7539e-08
3.10387e-08
2.8269e-08
2.98104e-08
2.75971e-08
2.99146e-08
2.70376e-08
2.97545e-08
2.70537e-08
3.01224e-08
2.76605e-08
3.03992e-08
2.7243e-08
2.97513e-08
2.53069e-08
2.91391e-08
2.52846e-08
2.78681e-08
2.45608e-08
2.8125e-08
2.48026e-08
3.11942e-08
2.33294e-08
2.8688e-08
2.45849e-08
3.05729e-08
1.99018e-08
3.31455e-08
2.95176e-08
2.64807e-08
3.10273e-08
2.91609e-08
2.87668e-08
2.92091e-08
3.12784e-08
3.14051e-08
2.75602e-08
3.29962e-08
2.94874e-08
3.31668e-08
3.06055e-08
3.22501e-08
2.91604e-08
3.07213e-08
2.72124e-08
3.06898e-08
2.72408e-08
3.03797e-08
2.729e-08
2.99867e-08
2.75686e-08
2.98277e-08
2.72883e-08
2.97639e-08
2.6745e-08
3.00888e-08
2.6978e-08
3.02693e-08
2.77019e-08
2.9766e-08
2.63749e-08
2.89091e-08
2.57059e-08
2.75461e-08
2.42707e-08
2.73922e-08
2.45916e-08
2.80361e-08
2.61644e-08
2.79125e-08
2.43648e-08
3.03565e-08
1.96996e-08
3.26005e-08
2.89583e-08
3.15988e-08
3.34243e-08
3.21693e-08
3.26243e-08
2.91108e-08
3.28447e-08
2.96345e-08
3.35854e-08
2.93588e-08
3.4067e-08
2.8785e-08
3.44216e-08
2.86475e-08
3.32001e-08
2.81901e-08
3.10623e-08
2.75278e-08
3.00446e-08
2.72212e-08
3.08799e-08
2.78253e-08
3.01504e-08
2.75588e-08
2.97871e-08
2.70163e-08
2.95215e-08
2.73183e-08
2.98107e-08
2.80696e-08
3.0145e-08
2.74227e-08
2.93453e-08
2.54131e-08
2.87249e-08
2.51866e-08
2.77121e-08
2.42764e-08
2.8489e-08
2.45398e-08
3.12789e-08
2.33074e-08
2.96205e-08
2.46696e-08
2.98927e-08
1.94092e-08
3.2819e-08
2.97714e-08
2.61406e-08
2.99437e-08
2.79585e-08
2.85431e-08
2.87298e-08
2.97337e-08
3.21906e-08
2.739e-08
3.20318e-08
2.8756e-08
3.25591e-08
3.08573e-08
3.32318e-08
3.03454e-08
3.22144e-08
2.9485e-08
3.11262e-08
2.75528e-08
3.03726e-08
2.72058e-08
3.03983e-08
2.77691e-08
2.97404e-08
2.73003e-08
2.95635e-08
2.6951e-08
2.98253e-08
2.70072e-08
2.99691e-08
2.71845e-08
3.0108e-08
2.77906e-08
2.96228e-08
2.58611e-08
2.88072e-08
2.53583e-08
2.77139e-08
2.42407e-08
2.76064e-08
2.45562e-08
2.80035e-08
2.61451e-08
2.7306e-08
2.43325e-08
3.00797e-08
1.94693e-08
3.2168e-08
2.83094e-08
3.27844e-08
3.38796e-08
3.21658e-08
3.2698e-08
2.86192e-08
3.09494e-08
2.97901e-08
3.16438e-08
2.9216e-08
3.30641e-08
2.89513e-08
3.20358e-08
2.9755e-08
3.40777e-08
2.93064e-08
3.35229e-08
2.80631e-08
3.09739e-08
2.76777e-08
3.03645e-08
2.7679e-08
3.02821e-08
2.75093e-08
2.98615e-08
2.71954e-08
2.93986e-08
2.71037e-08
2.91518e-08
2.71986e-08
2.96505e-08
2.83005e-08
3.00334e-08
2.71292e-08
2.94012e-08
2.57389e-08
2.88007e-08
2.48747e-08
2.76832e-08
2.42131e-08
2.84457e-08
2.46855e-08
3.07779e-08
2.36336e-08
2.91681e-08
2.48409e-08
3.04906e-08
1.89845e-08
3.37832e-08
2.97118e-08
2.63118e-08
2.96781e-08
2.74939e-08
2.87219e-08
2.85497e-08
2.82117e-08
3.18783e-08
2.8038e-08
3.2692e-08
2.88382e-08
3.23473e-08
2.98006e-08
3.3005e-08
3.06448e-08
3.29422e-08
3.08773e-08
3.22223e-08
2.97873e-08
3.05199e-08
2.77074e-08
3.03258e-08
2.72631e-08
3.01369e-08
2.76771e-08
2.9645e-08
2.7353e-08
2.9126e-08
2.6761e-08
2.97773e-08
2.75581e-08
2.95867e-08
2.72641e-08
2.9962e-08
2.79323e-08
2.93865e-08
2.61713e-08
2.86783e-08
2.54584e-08
2.77931e-08
2.41819e-08
2.76572e-08
2.47311e-08
2.78566e-08
2.57751e-08
2.70902e-08
2.42035e-08
3.12383e-08
1.90817e-08
3.41493e-08
2.83282e-08
3.28031e-08
3.33509e-08
3.16178e-08
3.22398e-08
2.86418e-08
2.97102e-08
2.84258e-08
3.21455e-08
2.79705e-08
3.21646e-08
2.91437e-08
3.27566e-08
2.91015e-08
3.25202e-08
3.00559e-08
3.27407e-08
2.88746e-08
3.31402e-08
2.8772e-08
3.08259e-08
2.78588e-08
2.98857e-08
2.78725e-08
3.0139e-08
2.76532e-08
2.97325e-08
2.7163e-08
2.90749e-08
2.68706e-08
2.91801e-08
2.70314e-08
2.96647e-08
2.82825e-08
2.94333e-08
2.71404e-08
2.91708e-08
2.5368e-08
2.88013e-08
2.4954e-08
2.75332e-08
2.43715e-08
2.83532e-08
2.48059e-08
3.0597e-08
2.40096e-08
3.02181e-08
2.41022e-08
3.08381e-08
1.9124e-08
3.49088e-08
2.95933e-08
2.67851e-08
3.01487e-08
2.77451e-08
2.89377e-08
2.86971e-08
2.7166e-08
3.08686e-08
2.87448e-08
3.15512e-08
2.84474e-08
3.15062e-08
2.83943e-08
3.30445e-08
2.98417e-08
3.30829e-08
3.08823e-08
3.29729e-08
3.19239e-08
3.24251e-08
3.02089e-08
3.08829e-08
2.80703e-08
3.03538e-08
2.72425e-08
3.04756e-08
2.76645e-08
2.94864e-08
2.69819e-08
2.89274e-08
2.69391e-08
2.98318e-08
2.73496e-08
2.95045e-08
2.71399e-08
2.98158e-08
2.7516e-08
2.9238e-08
2.60366e-08
2.86215e-08
2.53257e-08
2.76334e-08
2.43884e-08
2.77503e-08
2.49593e-08
2.81464e-08
2.54493e-08
2.636e-08
2.44172e-08
3.08738e-08
1.93388e-08
3.41172e-08
2.78584e-08
3.23141e-08
3.28213e-08
3.09211e-08
3.22707e-08
2.86159e-08
2.93131e-08
2.67055e-08
3.20741e-08
2.77684e-08
3.19264e-08
2.84875e-08
3.24408e-08
2.8943e-08
3.25178e-08
2.91777e-08
3.23936e-08
2.98927e-08
3.3469e-08
2.92521e-08
3.25598e-08
2.86455e-08
3.08365e-08
2.79511e-08
3.01605e-08
2.8029e-08
2.99305e-08
2.7441e-08
2.94124e-08
2.70309e-08
2.88105e-08
2.6812e-08
2.89733e-08
2.73939e-08
2.9296e-08
2.78362e-08
2.94741e-08
2.72356e-08
2.91194e-08
2.6004e-08
2.85444e-08
2.5141e-08
2.76106e-08
2.4407e-08
2.79885e-08
2.47704e-08
3.01193e-08
2.4413e-08
2.93799e-08
2.48167e-08
3.0512e-08
1.95056e-08
3.5147e-08
2.97846e-08
2.804e-08
2.98082e-08
2.80811e-08
2.91385e-08
2.98306e-08
2.76072e-08
2.96138e-08
2.89265e-08
3.05457e-08
2.8858e-08
3.10155e-08
2.76074e-08
3.21491e-08
2.87577e-08
3.2937e-08
3.02124e-08
3.28156e-08
3.04823e-08
3.29702e-08
3.06146e-08
3.23413e-08
2.99639e-08
3.09489e-08
2.7866e-08
2.99052e-08
2.72629e-08
3.03135e-08
2.73563e-08
2.93819e-08
2.67782e-08
2.94097e-08
2.67231e-08
2.98135e-08
2.69832e-08
2.94922e-08
2.76252e-08
2.96622e-08
2.71994e-08
2.89881e-08
2.60734e-08
2.83817e-08
2.53328e-08
2.75608e-08
2.45252e-08
2.73951e-08
2.48195e-08
2.81708e-08
2.47823e-08
2.63223e-08
2.46268e-08
3.01641e-08
1.91839e-08
3.52873e-08
2.81536e-08
3.16729e-08
3.25606e-08
3.05019e-08
3.15637e-08
2.92074e-08
2.95302e-08
2.55433e-08
3.16441e-08
2.70341e-08
3.19121e-08
2.77576e-08
3.2464e-08
2.84821e-08
3.24483e-08
2.95386e-08
3.21228e-08
2.92137e-08
3.31593e-08
2.95819e-08
3.42195e-08
3.03091e-08
3.23621e-08
2.95609e-08
3.09364e-08
2.81265e-08
2.98454e-08
2.78328e-08
2.98862e-08
2.71099e-08
2.9131e-08
2.66603e-08
2.94829e-08
2.66846e-08
2.87845e-08
2.74125e-08
2.9412e-08
2.75054e-08
2.97593e-08
2.72023e-08
2.88571e-08
2.5808e-08
2.84397e-08
2.51935e-08
2.74489e-08
2.45756e-08
2.78443e-08
2.45149e-08
3.00058e-08
2.41333e-08
2.93584e-08
2.52272e-08
2.96965e-08
1.9118e-08
3.66382e-08
2.9668e-08
2.85652e-08
3.00548e-08
2.82562e-08
2.91447e-08
3.05782e-08
2.81187e-08
2.91137e-08
2.88187e-08
3.04626e-08
2.8798e-08
3.08213e-08
2.84437e-08
3.16361e-08
2.77758e-08
3.20497e-08
2.98162e-08
3.24319e-08
2.98515e-08
3.27582e-08
3.07135e-08
3.23963e-08
3.19929e-08
3.24299e-08
2.9649e-08
3.09818e-08
2.81283e-08
2.97298e-08
2.7297e-08
3.03044e-08
2.70793e-08
2.92384e-08
2.66432e-08
2.93277e-08
2.64947e-08
2.94816e-08
2.72617e-08
2.93423e-08
2.75148e-08
2.95071e-08
2.70517e-08
2.88093e-08
2.63349e-08
2.83467e-08
2.53245e-08
2.7625e-08
2.464e-08
2.73105e-08
2.49214e-08
2.86709e-08
2.50131e-08
2.66722e-08
2.48475e-08
2.97358e-08
1.92135e-08
3.6579e-08
2.80414e-08
3.10348e-08
3.14237e-08
3.0364e-08
3.14155e-08
2.97938e-08
3.04844e-08
2.53202e-08
3.17335e-08
2.72572e-08
3.19346e-08
2.6829e-08
3.18357e-08
2.77745e-08
3.18846e-08
2.85308e-08
3.19827e-08
2.98809e-08
3.19289e-08
2.94212e-08
3.26204e-08
2.93976e-08
3.32369e-08
3.00445e-08
3.23032e-08
2.96569e-08
3.09358e-08
2.81008e-08
2.98293e-08
2.74419e-08
2.98024e-08
2.69874e-08
2.92156e-08
2.64283e-08
2.92634e-08
2.68264e-08
2.89011e-08
2.6987e-08
2.9289e-08
2.73633e-08
2.96969e-08
2.71528e-08
2.86557e-08
2.54808e-08
2.82305e-08
2.56032e-08
2.72978e-08
2.47621e-08
2.77287e-08
2.4586e-08
2.9053e-08
2.40677e-08
2.85659e-08
2.4871e-08
2.9298e-08
1.91887e-08
3.81491e-08
2.98005e-08
2.98049e-08
3.02199e-08
2.86146e-08
2.90841e-08
3.07681e-08
2.89432e-08
2.88523e-08
2.90481e-08
3.03434e-08
2.86893e-08
3.11779e-08
2.87432e-08
3.1133e-08
2.87611e-08
3.12444e-08
2.90278e-08
3.17484e-08
2.96836e-08
3.19398e-08
2.97301e-08
3.27781e-08
3.10528e-08
3.28008e-08
3.19123e-08
3.23619e-08
2.95482e-08
3.10702e-08
2.79625e-08
2.96604e-08
2.74441e-08
2.98681e-08
2.69498e-08
2.93672e-08
2.64857e-08
2.90284e-08
2.68359e-08
2.89805e-08
2.71281e-08
2.93018e-08
2.73167e-08
2.95205e-08
2.70127e-08
2.86168e-08
2.60215e-08
2.82993e-08
2.54224e-08
2.75432e-08
2.4577e-08
2.72917e-08
2.49527e-08
2.87435e-08
2.52743e-08
2.78985e-08
2.46318e-08
2.93175e-08
1.88534e-08
3.83942e-08
2.80303e-08
3.10174e-08
3.18306e-08
3.08567e-08
3.21077e-08
3.04799e-08
3.19707e-08
2.58022e-08
3.1145e-08
2.75712e-08
3.22408e-08
2.70432e-08
3.19224e-08
2.73061e-08
3.17145e-08
2.78626e-08
3.15839e-08
2.87249e-08
3.1659e-08
2.95531e-08
3.24015e-08
2.9284e-08
3.30345e-08
2.97978e-08
3.27426e-08
3.05258e-08
3.29081e-08
2.9604e-08
3.11982e-08
2.77397e-08
2.9726e-08
2.75097e-08
2.98492e-08
2.68343e-08
2.92054e-08
2.65009e-08
2.89245e-08
2.68503e-08
2.89859e-08
2.70265e-08
2.95634e-08
2.7341e-08
2.94786e-08
2.68857e-08
2.85127e-08
2.5686e-08
2.81847e-08
2.49686e-08
2.71209e-08
2.49135e-08
2.71991e-08
2.48176e-08
2.86008e-08
2.43608e-08
2.77919e-08
2.45047e-08
2.90026e-08
1.86145e-08
3.84161e-08
2.97287e-08
2.98475e-08
3.04916e-08
2.87077e-08
2.93336e-08
3.07163e-08
2.95637e-08
2.94142e-08
2.84001e-08
2.97901e-08
2.91666e-08
3.10089e-08
2.89403e-08
3.10497e-08
2.95937e-08
3.14226e-08
2.96239e-08
3.10528e-08
2.97141e-08
3.18483e-08
2.96204e-08
3.22343e-08
2.94359e-08
3.30114e-08
3.12711e-08
3.26154e-08
3.12677e-08
3.27968e-08
2.93905e-08
3.1315e-08
2.82516e-08
2.95775e-08
2.71999e-08
3.01678e-08
2.67882e-08
2.9303e-08
2.64863e-08
2.87793e-08
2.67236e-08
2.89671e-08
2.68009e-08
2.95508e-08
2.72178e-08
2.9476e-08
2.6719e-08
2.84152e-08
2.58636e-08
2.80942e-08
2.58301e-08
2.72434e-08
2.4699e-08
2.71355e-08
2.48448e-08
2.84788e-08
2.55394e-08
2.78748e-08
2.40598e-08
2.91958e-08
1.8588e-08
3.84028e-08
2.79891e-08
3.09922e-08
3.01899e-08
3.06913e-08
3.19988e-08
3.01765e-08
3.26843e-08
2.66866e-08
3.09344e-08
2.82986e-08
3.16662e-08
2.72745e-08
3.16949e-08
2.74901e-08
3.10922e-08
2.74607e-08
3.17736e-08
2.83179e-08
3.15252e-08
2.84739e-08
3.21801e-08
2.91962e-08
3.23469e-08
2.93584e-08
3.29631e-08
3.00419e-08
3.2867e-08
3.0744e-08
3.21603e-08
2.95415e-08
3.1026e-08
2.78351e-08
2.96345e-08
2.73445e-08
2.98344e-08
2.67057e-08
2.94825e-08
2.62846e-08
2.86996e-08
2.64968e-08
2.91297e-08
2.6747e-08
2.95673e-08
2.72172e-08
2.95819e-08
2.66325e-08
2.85281e-08
2.58043e-08
2.80338e-08
2.51931e-08
2.69919e-08
2.50659e-08
2.71147e-08
2.51788e-08
2.8229e-08
2.39223e-08
2.779e-08
2.4429e-08
2.85741e-08
1.8398e-08
3.82105e-08
3.00925e-08
3.01781e-08
3.10112e-08
2.91839e-08
2.96519e-08
3.09019e-08
2.98379e-08
3.02955e-08
2.87569e-08
3.02331e-08
2.85817e-08
3.08608e-08
2.95242e-08
3.14218e-08
3.0211e-08
3.16042e-08
2.94802e-08
3.11154e-08
3.00316e-08
3.12697e-08
2.93595e-08
3.17838e-08
2.95486e-08
3.22644e-08
2.96102e-08
3.28412e-08
3.12873e-08
3.30455e-08
3.1015e-08
3.32921e-08
2.95878e-08
3.13421e-08
2.81602e-08
2.9491e-08
2.72541e-08
2.985e-08
2.65621e-08
2.92562e-08
2.63114e-08
2.86971e-08
2.63425e-08
2.93482e-08
2.66062e-08
2.94177e-08
2.70919e-08
2.95622e-08
2.64273e-08
2.84879e-08
2.58079e-08
2.79068e-08
2.57576e-08
2.68235e-08
2.46725e-08
2.68956e-08
2.50842e-08
2.84566e-08
2.51413e-08
2.74597e-08
2.44925e-08
2.87939e-08
1.80821e-08
3.80239e-08
2.79952e-08
3.06252e-08
3.011e-08
3.08207e-08
3.28343e-08
3.05813e-08
3.304e-08
2.79348e-08
3.13788e-08
2.89408e-08
3.08278e-08
2.83703e-08
3.06277e-08
2.7552e-08
3.05615e-08
2.78023e-08
3.11601e-08
2.81225e-08
3.14231e-08
2.86023e-08
3.16813e-08
2.87138e-08
3.21161e-08
2.96106e-08
3.2173e-08
3.0014e-08
3.29684e-08
3.01978e-08
3.31001e-08
3.07211e-08
3.27032e-08
2.99218e-08
3.11451e-08
2.79872e-08
2.96385e-08
2.70344e-08
2.99483e-08
2.65678e-08
2.91759e-08
2.63106e-08
2.86966e-08
2.62145e-08
2.94665e-08
2.6595e-08
2.95725e-08
2.70251e-08
2.98373e-08
2.63569e-08
2.85328e-08
2.55368e-08
2.79945e-08
2.54254e-08
2.66059e-08
2.50684e-08
2.69229e-08
2.48663e-08
2.83129e-08
2.43545e-08
2.71965e-08
2.41569e-08
2.85262e-08
1.8124e-08
3.79692e-08
3.00005e-08
3.03387e-08
3.12827e-08
2.90502e-08
3.01084e-08
3.09508e-08
2.94859e-08
3.06943e-08
2.94097e-08
3.10032e-08
2.84981e-08
3.11929e-08
2.88632e-08
3.1408e-08
2.97983e-08
3.12527e-08
2.97473e-08
3.13748e-08
2.99402e-08
3.11562e-08
2.97841e-08
3.12747e-08
2.97459e-08
3.19265e-08
2.97828e-08
3.23394e-08
2.96386e-08
3.27492e-08
3.12053e-08
3.31556e-08
3.14164e-08
3.23252e-08
2.95273e-08
3.13452e-08
2.82805e-08
2.96275e-08
2.70116e-08
3.00099e-08
2.64087e-08
2.92981e-08
2.61676e-08
2.88718e-08
2.62123e-08
2.95391e-08
2.65871e-08
2.93214e-08
2.6932e-08
3.00635e-08
2.61609e-08
2.85726e-08
2.55628e-08
2.78101e-08
2.60315e-08
2.64802e-08
2.47337e-08
2.65562e-08
2.49337e-08
2.80569e-08
2.53273e-08
2.70822e-08
2.40374e-08
2.79934e-08
1.79643e-08
3.84543e-08
2.80441e-08
3.01039e-08
3.03371e-08
3.13151e-08
3.35434e-08
3.0017e-08
3.23169e-08
2.84943e-08
3.17023e-08
2.91023e-08
3.09664e-08
2.85105e-08
3.10259e-08
2.78434e-08
3.10661e-08
2.81458e-08
3.11238e-08
2.82725e-08
3.11004e-08
2.78823e-08
3.12741e-08
2.88761e-08
3.17595e-08
2.88393e-08
3.17323e-08
2.94153e-08
3.2364e-08
3.03054e-08
3.30724e-08
3.02595e-08
3.31459e-08
3.10143e-08
3.28342e-08
2.9734e-08
3.11859e-08
2.80337e-08
2.96583e-08
2.70034e-08
2.9778e-08
2.66991e-08
2.93612e-08
2.62408e-08
2.89232e-08
2.62024e-08
2.94373e-08
2.64231e-08
2.96054e-08
2.67959e-08
3.01972e-08
2.60332e-08
2.8835e-08
2.53868e-08
2.77903e-08
2.49939e-08
2.63375e-08
2.4698e-08
2.67125e-08
2.48443e-08
2.80022e-08
2.44507e-08
2.68747e-08
2.40341e-08
2.74169e-08
1.77349e-08
4.00035e-08
2.95448e-08
3.03026e-08
3.12745e-08
2.90057e-08
3.04545e-08
3.04733e-08
2.88922e-08
3.11267e-08
3.00889e-08
3.0773e-08
2.81707e-08
3.09499e-08
2.89334e-08
3.16699e-08
2.86516e-08
3.10421e-08
2.94606e-08
3.0908e-08
2.99222e-08
3.07385e-08
3.00284e-08
3.11121e-08
2.92266e-08
3.14384e-08
2.97602e-08
3.19099e-08
2.99223e-08
3.19996e-08
2.99196e-08
3.26296e-08
3.10446e-08
3.29731e-08
3.11177e-08
3.23134e-08
2.96665e-08
3.11935e-08
2.81042e-08
2.97692e-08
2.7004e-08
2.97381e-08
2.63902e-08
2.89222e-08
2.60635e-08
2.88201e-08
2.6243e-08
2.93351e-08
2.64345e-08
2.96802e-08
2.66251e-08
3.0205e-08
2.59464e-08
2.88026e-08
2.52768e-08
2.76542e-08
2.59931e-08
2.62429e-08
2.46196e-08
2.67144e-08
2.48548e-08
2.78506e-08
2.54317e-08
2.68036e-08
2.38535e-08
2.73055e-08
1.7452e-08
4.09721e-08
2.78211e-08
2.96441e-08
3.02548e-08
3.09048e-08
3.38703e-08
2.94855e-08
3.18639e-08
2.91901e-08
3.17408e-08
2.88121e-08
3.12323e-08
2.91573e-08
3.10559e-08
2.86489e-08
3.1007e-08
2.90433e-08
3.13266e-08
2.86075e-08
3.09064e-08
2.80807e-08
3.11281e-08
2.83509e-08
3.1439e-08
2.8905e-08
3.1679e-08
2.90536e-08
3.15925e-08
2.94426e-08
3.21529e-08
3.01351e-08
3.28872e-08
3.0572e-08
3.30207e-08
3.07733e-08
3.26045e-08
2.96679e-08
3.12125e-08
2.79833e-08
2.95465e-08
2.70075e-08
2.96518e-08
2.64637e-08
2.91615e-08
2.61339e-08
2.88668e-08
2.62214e-08
2.92347e-08
2.63458e-08
2.96603e-08
2.63925e-08
3.039e-08
2.60004e-08
2.89723e-08
2.52433e-08
2.75704e-08
2.5316e-08
2.6099e-08
2.45915e-08
2.67256e-08
2.4668e-08
2.77453e-08
2.44852e-08
2.66597e-08
2.37579e-08
2.75365e-08
1.70983e-08
4.11516e-08
2.95814e-08
2.98787e-08
3.07578e-08
2.94819e-08
3.08002e-08
3.01256e-08
2.88027e-08
3.1418e-08
3.01236e-08
3.02211e-08
2.83695e-08
3.12398e-08
2.87517e-08
3.1236e-08
2.84318e-08
3.09544e-08
2.93969e-08
3.11467e-08
2.97169e-08
3.05501e-08
3.02643e-08
3.13681e-08
2.95395e-08
3.10062e-08
2.94277e-08
3.14308e-08
2.98126e-08
3.18694e-08
2.98616e-08
3.19988e-08
2.99525e-08
3.261e-08
3.11314e-08
3.31272e-08
3.11823e-08
3.24022e-08
2.97649e-08
3.10773e-08
2.82743e-08
2.97556e-08
2.67312e-08
2.95508e-08
2.64141e-08
2.89627e-08
2.60785e-08
2.90137e-08
2.62351e-08
2.92988e-08
2.63205e-08
2.99939e-08
2.63208e-08
3.04801e-08
2.58317e-08
2.87933e-08
2.51851e-08
2.77031e-08
2.53888e-08
2.59538e-08
2.43203e-08
2.67623e-08
2.46164e-08
2.76255e-08
2.42828e-08
2.6446e-08
2.35006e-08
2.91941e-08
1.75113e-08
4.0913e-08
2.78043e-08
2.94617e-08
2.91624e-08
3.08162e-08
3.3089e-08
2.91812e-08
3.13753e-08
2.90164e-08
3.10428e-08
2.85359e-08
3.14241e-08
2.88187e-08
3.10191e-08
2.9097e-08
3.10945e-08
2.91981e-08
3.08208e-08
2.87548e-08
3.1048e-08
2.92052e-08
3.06993e-08
2.8292e-08
3.10117e-08
2.86166e-08
3.11455e-08
2.87692e-08
3.17209e-08
2.90132e-08
3.1663e-08
2.98502e-08
3.21484e-08
3.05049e-08
3.28317e-08
3.04923e-08
3.30018e-08
3.07773e-08
3.25059e-08
2.96059e-08
3.11514e-08
2.78716e-08
2.96244e-08
2.69033e-08
2.94411e-08
2.63226e-08
2.87984e-08
2.59311e-08
2.8644e-08
2.60992e-08
2.93858e-08
2.62443e-08
2.99381e-08
2.62383e-08
3.01236e-08
2.61704e-08
2.8616e-08
2.51004e-08
2.76887e-08
2.53007e-08
2.57748e-08
2.43797e-08
2.66519e-08
2.4509e-08
2.76608e-08
2.46061e-08
2.64189e-08
2.35615e-08
2.92719e-08
1.84057e-08
4.06409e-08
2.9541e-08
2.98367e-08
3.09945e-08
2.97083e-08
3.07427e-08
3.02776e-08
2.89013e-08
3.12646e-08
3.01329e-08
3.03317e-08
2.84481e-08
3.13083e-08
2.86343e-08
3.12867e-08
2.9005e-08
3.11278e-08
2.9316e-08
3.11108e-08
2.96141e-08
3.08819e-08
2.94799e-08
3.04356e-08
2.97336e-08
3.08432e-08
2.98571e-08
3.10853e-08
2.97316e-08
3.12052e-08
2.97589e-08
3.20011e-08
2.97565e-08
3.22286e-08
3.01548e-08