/*--------------------------------*- C++ -*----------------------------------*\
| =========                 |                                                 |
| \\      /  F ield         | OpenFOAM: The Open Source CFD Toolbox           |
|  \\    /   O peration     | Version:  2206                                  |
|   \\  /    A nd           | Website:  www.openfoam.com                      |
|    \\/     M anipulation  |                                                 |
\*---------------------------------------------------------------------------*/
FoamFile
{
    version     2.0;
    format      ascii;
    arch        "LSB;label=32;scalar=64";
    class       volScalarField;
    location    "150";
    object      ducSensor;
}
// * * * * * * * * * * * * * * * * * * * * * * * * * * * * * * * * * * * * * //

dimensions      [0 0 0 0 0 0 0];

internalField   nonuniform List<scalar> 
93840
(
0.441464
0
0.403266
0
0
0.318499
0
0.0123008
0
0.179931
0.185688
0
0.0729441
0
0.11503
0
0.0167813
0
0.0662198
0
0
0.122437
0.00122216
0.0604224
0
0
0.150866
0.0154411
0.0700282
0
0
0.0250089
0
0
0.353549
0
0
0
0.0435792
0.0277222
0.0574421
0.0293652
0
0.538623
0
0
0.0466636
0
0
0.0387296
0.0341367
0.0466612
0.0577958
0
0
0.0346369
0
0.0473349
0.0219438
0.0178674
0.0356001
0.021727
0.1
0.131623
0
0
0
0.0281617
0
0
0.0200257
0
0.0317442
0.0377341
0
0
0.108143
0
0
0
0.0380772
0.0102449
0
0.0201721
0.0398572
0
0.00111198
0.0217069
0
0.46653
0
0.0194892
0.0202966
0
0
0
0.00969139
0.0125419
0
0
0
0
0
0
0
0.0175977
0
0.0245077
0
0
0.0435054
0.0162719
0
0.0410167
0
0
0
0
0.398735
0
0
0.0236701
0
0
0
0.023176
0.000845284
0
0.0126718
0.00814505
0.0233144
0
0
0
0.0788124
0
0.0320833
0
0.0027634
0
0
0.0424788
0
0
0.0181746
0
0.0348884
0
0
0.00136232
0
0.356907
0
0.067508
0.033776
0
0
0
0.0132686
0.00946433
0.00532679
0
0.0121187
0
0
0.0215437
0.0132229
0.0158608
0.00490885
0.0992745
0
0
0
0
0.00598529
0
0.0242542
0.0250033
0.0217742
0
0.00945456
0.00448251
0.015513
0
0.0228101
0.0100669
0.00726646
0.00666706
0.24558
0
0.0474827
0.0428037
0
0
0.00354184
0.00589558
0.0175441
0
0
0.00867493
0
0.0076222
0.0185173
0
0
0.034812
0
0
0.0926549
0
0
0
0
0.0086192
0
0.0107592
0.029953
0.0319848
0
0.0160032
0.00933779
0.0315369
0.0167731
0
0
0.0377441
0
0.0301106
0
0.204976
0
0
0.0302056
0
0
0.0129199
0
0.0120155
0.0277014
0.0372592
0.00277143
0
0
0
0.00832766
0
0.0151222
0.00830837
0.0374105
0.0432677
0
0.112487
0
0.0231164
0
0.00591287
0.00692662
0
0.00615102
0.0251256
0.0205591
0.0173914
0
0.0198805
0
0
0.0069133
0
0.0116074
0.0432823
0
0
0
0
0.165655
0
0
0.0128035
0
0
0
0
0.00107574
0.0518097
0
0.0172772
0
0.0347675
0.045579
0
0
0.0713469
0.0498233
0.0216077
0.0146599
0.00288352
0
0
0.139538
0
0.0254815
0
0
0.00685477
0
0
0.0153739
0.00325036
0.010321
0.0486358
0
0
0.0476482
0.0280732
0
0.0260186
0
0.0139295
0.0303161
0.026697
0.00175887
0.0253162
0
0.229181
0.487196
0
0.00423726
0
0
0
0
0.00116312
0.0395103
0.0288148
0.0225101
0.0513539
0.0264417
0.0289048
0.00779223
0.031009
0.0211931
0.0140676
0.0279432
0.0347469
0.00466683
0.00442809
0
0.00918675
0.0333383
0.0435475
0
0.0227314
0
0
0
0
0.00308212
0.000596373
0.0383529
0.0240524
0.0479022
0
0.0463116
0.0145843
0.0318312
0
0
0.0155937
0.0480943
0.0229564
0.0711161
0
0
0.0141068
0.0362164
0.0666237
0.00410483
0
0
0.0135993
0.00783838
0
0
0
0.0157427
0.0293875
0.000585712
0
0.0185941
0
0.0612082
0.00427081
0.033079
0
0.0276874
0.0463845
0.0518851
0
0.0277995
0
0
0.00210324
0.0637
0.0349694
0.207709
0
0.0254392
0
0
0
0
0.00881094
0.0121288
0.0449282
0.00941196
0.0555468
0.044638
0.0704994
0
0.0774006
0
0.0269813
0
0.0179342
0.00480211
0.0256332
0
0.0662242
0
0.00743369
0.0194877
0
0
0.169318
0
0
0.0162196
0.000191478
0
0.00102049
0.00150746
0.0209219
0.00406563
0.0117569
0.00830411
0.026948
0.00685946
0.028981
0
0.0226396
0
0.00999333
0
0
0
0.0658729
0
0.0267542
0
0.0517912
0
0.0396962
0.0266866
0.136325
0
0.0296504
0.00191974
0
0
0
0.00346681
0
0.0278421
0.00190833
0.0218709
0.0395401
0
0.0250156
0.0522612
0
0
0
0
0.00586409
0.0418197
0
0.0720904
0
0
0
0.00268548
0
0.0280901
0
0.110339
0
7.23369e-05
0.0235686
0
0.00598286
0.00595273
0
0.00323536
0
0.0222571
0.0317324
0
0.0590352
0.00655206
0
0.0470667
0.0155978
0
0
0
0
0.0581018
0
0.041772
0
0
0
0.00681857
0
0.00599642
0
0.0438636
0
0.0284447
0
0
0
0
0
0
0.0140987
0.0336975
0.0367737
0.0458568
0.020784
0.0850984
0.0307264
0
0.0348202
0.00242487
0
0
0.0257552
0
0
0
0.0325857
0
0.00854815
0
0.0568093
0
0.0272189
0
0.0123454
0
0.00895596
0.0238603
0
0.00535639
0.00815785
0.000593603
0.00592635
0
0.00737985
0.0165816
0
0.054138
0
0.130156
0.0337087
0.0702027
0.0319215
0
0.0171745
0
0
0
0
0
0.00462833
0
0
0.00972503
0.0146714
0
0.0230471
0
0.0293585
0
0.0188788
0
0
0
0
0.00696654
0
0.0160236
0.00921014
0.0145132
0.0447178
0
0.0387842
0.0104402
0
0.0406072
0.00778618
0
0
0.024199
0.0635306
0.0800087
0.0142405
0.0504769
0
0
0
0
0
0.0468732
0
0.0274863
0
0.0610448
0
0.00479307
0.0150369
0
0.00414018
0.0139951
0
0.014768
0
0.0527864
0.00278001
0
0.0187347
0
0.0798981
0.0883494
0
0
0
0
0
0
0
0
0
0
0
0.0415973
0.00137213
0.0279218
0
0.0235718
0
0.047227
0
0.0809382
0
0.0183262
0
0
0.00113677
0
0.0106151
0
0.0283831
0
0
0.0295787
0
0.0369605
0
0.0358397
0
0.057457
0.00401227
0.0446445
0.0345018
0.005225
0.0148778
0.0627275
0
0.0670942
0.0248652
0
0.0549192
0
0.0379277
0
0.0670398
0
0.0523428
0
0.150067
0
0.000525162
0.0151295
0
0.00927289
0
0
0.00779405
0
0.00786772
0.0101013
0
0.0165198
0
0.0852203
0
0.0503843
0.0640487
0.0671345
0.028397
0.01046
0
0
0
0.146854
0
0.00125404
0.0612621
0
0
0.0200144
0.0367164
0
0.028963
0
0.0674926
0
0.125793
0
0.0173041
0
0
0.00174461
0.00378207
0.00154906
0.00343494
0.0146463
0.0356585
0.0399372
0.0575111
0
0.0605409
0
0.0928423
0.0264645
0.0395841
0.0392318
0.0706669
0.0580941
0
0.0215434
0.0634857
0
0
0
0.0241814
0.0218359
0
0
0
0.0322188
0
0
0
0.0435963
0
0.114464
0
0
0.00861599
0.00523521
0.0134187
0.0172899
0.0108046
0
0
0
0
0
0.0104927
0
0.0394476
0
0.0892098
0.0189207
0.0407094
0.0569765
0.0249442
0.0419551
0
0
0.132525
0.0494194
0.0134522
0.0116774
0.0168096
0.0131744
0.0151315
0.00919783
0
0.0244512
0
0.0306694
0
0.047671
0
0.104222
0
0.0140207
0
0
0.00842661
0
0
0
0.0135487
0.00638112
0.0317342
0.0806194
0
0.0300398
0
0.0621752
0.0118057
0.0261972
0.00577675
0.044461
0.0485747
0.0258768
0.0601683
0
0
0
0.0384865
0.0557899
0
0.0339618
0.0192336
0.0166031
0.019938
0
0.0515774
0
0.0430213
0
0.0486269
0
0.108508
0
0
0.00545792
0
0.0114079
0.00813368
0
0
0
0.00775062
0.041815
0
0.119546
0.00579322
0.096439
0.0171511
0
0.0530492
0.0567541
0.0992331
0.0479898
0.0550496
0.0024316
0.0137875
0
0.0186066
0.0259142
0.0153286
0.0264112
0.021897
0.00612009
0
0.0237981
0.0242447
0
0.0362385
0
0.0297776
0
0.0689342
0
0.102088
0
0.0197668
0.000263665
0
0.00592312
0
0
0
0.0208462
0
0.0529939
0.0291766
0
0.0377069
0
0.0297575
0.0305862
0
0.0220819
0.0148852
0.0257145
0.0417917
0.04495
0
0.0283961
0.0293631
0.0215645
0.0579172
0
0.0367706
0.0308776
0.0639434
0
0.0382586
0.0294703
0
0.0610854
0
0
0
0.0512882
0.018463
0.124478
0.0086179
0
0.0181473
0.0145292
0.0289142
0.00904424
0.0115819
0
0
0
0.00803509
0
0.00873084
0.0736744
0.0325349
0.0344749
0
0.0737346
0.041749
0.0413476
0.00509229
0.0368616
0.0104805
0.0569848
0.0321021
0.022053
0.0706495
0.0189942
0.0542672
0
0.0549407
0.0442085
0.0331851
0
0.0505486
0.0358061
0
0.0349516
0
0.00794223
0.0208379
0
0.0532392
0.140637
0.0338017
0.0214966
0
0
0
0
0
0
0.0153118
0
0.0466307
0
0.010522
0.0421639
0.0324493
0.0757667
0.0345501
0.0336437
0.0432127
0.0333883
0.0342607
0
0.0402428
0.0228993
0.00288454
0.0273451
0.00049566
0.0235936
0
0.0457211
0.0185115
0.0330931
0.0141221
0.0474149
0.028726
0.0322903
0.0271716
0
0.0326667
0
0
0.0398119
0
0.0648877
0.149528
0.048643
0
0.0258466
0.0376407
0.00784605
0.0268178
0
0
0.0116239
0
0
0
0
0.0141741
0
0
0
0
0.00257137
0.000124625
0
0.0239197
0.0146967
0.0310362
0.0373457
0.0224832
0.0262706
0
0.0190997
0.0159275
0.0617625
0
0.0472728
0.0123234
0.0147667
0.0454418
0
0.0343752
0
0.0234821
0.0379117
0
0
0
0.0491674
0.123076
0.0512192
0.0124889
0
0
0
0
0
0
0.0385965
0
0.0341956
0.0691621
0
0
0.0342925
0.0342189
0.0382577
0
0.0463165
0.0102016
0.00969235
0.0638048
0.0409412
0.0467402
0.0105344
0.0405568
0.0638601
0.0071962
0
0.0465286
0
0.0635397
0
0.0364522
0.0108103
0
0.0390204
0
0.0310544
0.003228
0
0.00545579
0
0.0212517
0.00300747
0
0.0861214
0.0209256
0
0.00893874
0.00222555
0.0148578
0.000182882
0
0
0.00600134
0
0
0
0.143546
0
0.0437023
0
0.0145625
0
0.0228806
0.00625846
0.0375749
0
0.0316912
0.0368823
0.0558988
0.0149162
0.0378556
0.0214354
0.011643
0.00310194
0.0647481
0
0.104242
0.0386811
0.0524947
0.0168914
0.0400256
0.0478721
0.0104347
0.0221297
0
0
0.0587406
0
0.00613393
0.0121352
0
0.0549903
0
0.00780314
0
0
0
0
0
0
0.0385154
0
0.0417285
0.00893583
0
0
0.028892
0.0562881
0.0120992
0.0498692
0.0294246
0.102657
0.0032683
0.00083201
0.00361941
0.0669532
0
0.0438948
0.00408937
0.0429072
0.0418832
0.0231758
0
0.0721294
0.023388
0.0524113
0.0122402
0.0610575
0.0204108
0.0345813
0.00470587
0.0167191
0
0.0200008
0
0.0281718
0
0.0394479
0.0348817
0
0
0
0
0
0.0171174
0
0
0
0.0084311
0
0
0
0
0
0
0
0
0.120653
0.0454544
0.0305385
0
0.1206
0
0.0340163
0.0243061
0.129335
0
0.065763
0.00883141
0.0643168
0.050602
0.0140017
0
0.042559
0.0425923
0.0779198
0.0148208
0.0829769
0
0.0325753
0.00973147
0.0042779
0
0
0
0.0266809
0.0183586
0.0172429
0.0651216
0.000737178
0
0
0.00940359
0
0.0184374
0.00777015
0.00990373
0.0118733
0
0.024912
0
0
0.0814444
0.0598186
0
0
0
0
0
0
0.00670191
0.01602
0
0
0.0453531
0
0
0.000219899
0.052428
0.0256973
0.0307713
0.0366254
0.0229315
0.0370388
0.0527607
0.00505098
0.0325923
0.0389634
0.0487145
0
0.0535197
0
0.024493
0.0126405
0.0382489
0
0.0277343
0.0570389
0.0384647
0
0.0775469
0
0
0
0
0.00510246
0
0.0106014
0
0.00460336
0
0
0
0
0.00191189
0
0.00299193
0
0.0249082
0.098447
0
0
0.00932546
0
0
0.0308652
0.0546824
0
0.0491163
0.0532912
0.0591981
0.054063
0
0.042212
0.0159226
0.0397498
0.0512191
0.0289226
0.0323232
0.0461386
0.0511917
0
0.0449513
0
0.00580862
0
0.017107
0
0.0285548
0.0216026
0
0
0.108607
0.0180357
0
0
0.0147302
0.0176595
0.0277519
0.0167232
0.0127963
0.00354384
0.0286943
0
0.0169017
0.00466017
0.0986397
0
0.000175745
0.0341136
0
0
0
0.00277078
0.0551403
0.0527432
0
0.0484452
0
0.0516641
0
0.0273008
0.0460583
0.0272193
0.0594434
0
0.016963
0.0103683
0.0204825
0.0844095
0.0710462
0.000357919
0.038808
0.0483407
0
0.0369377
0.0108045
0.0485231
0
0.0587314
0
0.014775
0
0
0
0.10572
0.0424076
0
0
0
0
0
0
0
0
0
0
0
0
0
0
0.0117934
0
0.0286838
0
0
0.0485274
0
0.00615947
0.101797
0.124824
0.0697459
0.0155759
0
0.00665073
0.033764
0.0539634
0.00854717
0.0777911
0
0
0.0563392
0.0145884
0.0355183
0.00982053
0
0.0377972
0.0595556
0.0148811
0.0425289
0
0.0280404
0
0.0296535
0.00291798
0.0459615
0.0160281
0
0
0.0909005
0.0374395
0
0
0.0148982
0.0305061
0.0161956
0.0011348
0
0.00387441
0.0172472
0
0.05098
0.0129234
0.0578868
0
0.0445289
0.0352934
0
0.0379173
0.0997756
0
0.0515009
0
0
0.0455315
0.0090103
0.0302283
0.0297177
0.0705426
0.0358436
0.0511491
0.0551992
0.00569654
0.0611565
0
0.0275552
0.0278087
0.0241161
0.0274315
0.0392149
0.0197494
0.0334013
0.0427522
0.0406233
0.0398106
0
0.0448759
0
0.030411
0
0.0177525
0.0334378
0
0.035829
0.092807
0.0480115
0
0.0130145
0
0
0
0.00850946
0
0.0170407
0
0
0.00397405
0
0
0
0
0
0.0819392
0
0
0
0.0150079
0
0.0485011
0
0.0274965
0.0574233
0.0100464
0
0.0295132
0.0175977
0.0211182
0.0645217
0
0.0578997
0.0411467
0
0.0303415
0.0225666
0.0724578
0.0647895
0.0252257
0.0341974
0.0492264
0.0351475
0
0
0.0369914
0
0.0407991
0
0.0389305
0.0187317
0.0417005
0.00838142
0.102757
0.0636851
0
0.00176061
0.00937187
0.0280611
0.0185698
0
0
0
0
0
0.0772415
0
0.0403509
0
0
0.0873253
0
0.0659331
0.00868125
0.0716842
0
0.0106174
0
0.0454172
0
0
0.0758501
0.0184127
0.0429955
0.0155794
0.00450518
0.023057
0.0644165
0
0.0340983
0.0639633
0
0.0671363
0.0350391
0
0.0730632
0.0479271
0.0325115
0.0420308
0.0525589
0
0
0.0489987
0
0.0220623
0.0172128
0.0610683
0
0.0442768
0
0.102535
0.0761753
0
0
0
0
0.00307355
0.00123293
0.000548854
0.0175464
0
0
0
0
0.00386363
0
0
0
0.107721
0
0.00954614
0.0913492
0
0.0867256
0
0
0.0294472
0.0375513
0
0.0217283
0
0.0377628
0.0472879
0.0239614
0.0237312
0.0614025
0
0.0128197
0.0905018
0
0.030685
0.0537515
0
0.0497119
0.070137
0.0546263
0.0210149
0.0535952
0.0337653
0
0.0509929
0
0.0569536
0.00436267
0.0398126
0
0.0564297
0.0410693
0.103114
0.0750913
0
0.00670845
0.0150507
0.0293817
0.00381332
0
0
0
0
0
0.0563161
0
0.0153948
0.0961055
0
0
0
0.041932
0
0
0.00865613
0
0
0
0
0.0709381
0.00805851
0
0.0318255
0
0
0.0459883
0.0478538
0
0.0501988
0
0.0106537
0.097074
0.0330531
0
0.0742624
0
0.0437134
0.0264982
0.0722734
0
0.0522926
0.0662567
0.00323098
0.0484034
0
0.0430587
0
0.0637969
0
0.0584556
0.0589368
0.0958363
0.0783604
0
0
0
0
0
0.0172386
0
0
0
0
0.00875398
0
0.047185
0
0.112023
0
0
0
0
0.0512872
0
0.0536127
0
0
0
0
0.00365262
0.0920275
0.00628493
0.0653497
0.061909
0
0.0285685
0.0425511
0.0297445
0.047857
0
0.0188864
0.0805905
0.0470646
0
0.0695123
0.00286552
0.0492444
0.00633008
0.0974502
0
0.0546933
0.0610827
0
0.0765597
0
0.0211596
0
0.0736694
0.0459059
0.0297543
0
0.100869
0.0544039
0.0493085
0.00343916
0.0182572
0.0492548
0.0107668
0
0
0
0
0.0136001
0.037733
0.0417243
0
0.0329291
0
0
0
0.0193998
0
0
0.0262608
0
0
0
0
0
0.0318879
0
0.0113157
0.00200289
0
0.0379677
0.029398
0.030883
0.0418645
0.0730439
0.0554665
0
0.0313803
0.0585061
0.0642011
0
0.0597731
0.0346935
0.0465354
0.0138134
0.0985289
0
0.0359735
0.0643034
0
0.0788842
0
0.0554864
0
0.0490839
0.0294276
0.0682316
0
0.109727
0.0458883
0.0431136
0
0
0
0
0.00648714
0
0.00975263
0.0106326
0
0
0
0.0997347
0
0.0653636
0
0
0
0.018725
0
0
0
0.00148938
0
0
0
0
0.00386682
0
0
0.0281325
0
0.0155818
0.0250343
0.00329718
0.0581329
0.00300842
0.0445623
0.00200006
0.0469059
0
0.0813262
0
0.0548046
0.0328813
0.063004
0
0.092551
0
0.0293235
0.0554397
0
0.0899333
0
0.0383279
0.0185375
0.0437619
0
0.111522
0.00576234
0.124814
0.0489531
0.072334
0
0.023333
0.00107582
0
0
0
0
0
0.0116154
0.0352626
0.0108873
0
0
0
0.0204534
0.0586052
0.0414797
0
0.012571
0
0
0
0.0455396
0
0
0
0
0.00170431
0
0
0.0524346
0.0187847
0.01033
0.0651829
0.00749894
0.0530065
0.00272541
0.0211528
0.0197632
0.0260716
0
0.0594606
0
0.0527291
0.016692
0.0855012
0
0.0957446
0
0.0207202
0.0541847
0.00564298
0.091495
0.0120224
0.0426792
0.0367663
0.0258037
0
0.112174
0.0360776
0.153041
0.064592
0
0.00928616
0
0
0.0065017
0
0
0.00555345
0.0048653
0
0
0
0
0.0703931
0
0
0
0
0
0
0
0.0235682
0
0
0.0545075
0.00395659
0
0
0.0106824
0
0
0
0.0244226
0.0716699
0
0.0253953
0
0.0524815
0.0378736
0.00492839
0.0322732
0.039947
0
0.0434828
0
0.0512064
0
0.0906609
0
0.099779
0
0.0143393
0.0642604
0.0404243
0.0765623
0.0211406
0.0122049
0.036688
0.0445161
0
0.0937891
0.0634186
0.18593
0.0724131
0
0
0.0307957
0
0
0
0.0177566
0
0
0.00533617
0.0266573
0.029068
0.0207069
0
0.0341643
0.0166883
0.0695406
0.0283406
0.0542856
0.040417
0
0
0.0740968
0.00365639
0
0.014502
0
0.0412307
0.0145115
0
0
0
0.0143995
0.0122151
0
0.071956
0.0425947
0.02323
0.0440519
0.0563476
0.00687046
0.0287214
0.0575071
0.027528
0.0561764
0.0194732
0.0471365
0
0.0948624
0
0.081429
0
0.0141748
0.0525178
0.0444145
0.0740905
0.0150429
0
0.0330139
0.0474607
0
0.0780404
0.0762664
0.173029
0.104108
0
0.0224335
0.0149373
0.0298981
0
0
0.00508079
0
0
0
0
0
0
0
0
0
0.0224348
0
0.0707101
0
0.148114
0
0
0
0.00377012
0
0.0459765
0
0.00180652
0
0.00476616
0
0.0182882
0.0167448
0.0148765
0.00805934
0.0234933
0.0103254
0.0107108
0.0449045
0.0434996
0.000374864
0.0234982
0.0289576
0.0239828
0.0221521
0.0318642
0.0486672
0
0.0955249
0
0.0251374
0.00302141
0.0178728
0.0607656
0.0514837
0.0709895
0.0216644
0
0.0159837
0.0427724
0.0448225
0.065677
0.0757877
0.0213033
0.142562
0
0.0331589
0.0149791
0.0120307
0
0
0.0209026
0
0
0.0189622
0.0260652
0.0101112
0.0214479
0
0.0808221
0.0249977
0
0
0
0.0667409
0
0
0.0387909
0
0
0.028125
0
0.0152548
0
0.0360014
0
0.0122685
0
0.0274207
0.012016
0.0136686
0.035141
0.0122885
0
0.0203676
0.0437655
0.0393829
0.0116504
0.0135244
0.0178042
0
0.00514565
0
0.0535117
0
0.0929093
0
0.036517
0.0463268
0.0325359
0.0284408
0.0449647
0.0694121
0.0221345
0.00717628
0.0532657
0.0419313
0.0425457
0.0563884
0.0736141
0
0
0.0655826
0
0.0302338
0.0143465
0
0
0
0
0
0
0
0
0
0
0
0
0.0881238
0.0355985
0.00943632
0.12624
0.100003
0
0
0
0
0
0.0469835
0.0106263
0
0
0
0
0.0163118
0
0.000528829
0.0255935
0.0238264
0.0836814
0.0443844
0.0263717
0.0265037
0.028126
0.0604591
0.0341117
0.0423619
0.0340858
0
0.0490118
0
0.0578662
0
0.0710483
0.0514031
0
0.0648527
0.0464559
0
0.0528924
0.0628357
0.0279499
0.0153315
0.0429721
0.0479416
0.045564
0.0600944
0.0624851
0
0
0.156218
0.00576329
0.00474993
0.0672682
0.00426836
0.0227019
0.021149
0.00746997
0.0128392
0.0151217
0.0316378
0.0275429
0.0408752
0.0601935
0
0.0836704
0
0
0
0.0579071
0
0
0.0957732
0.0220279
0
0
0
0.0131333
0.000542205
0
0
0.0195906
0
0.00589672
0.0226035
0
0.0220034
0
0.0144475
0.0394661
0.0128771
0.0192204
0.00205127
0.0404574
0.0403601
0.036098
0.0446784
0
0.0299095
0.00497025
0.0555461
0
0.0265897
0.139249
0
0.0717356
0.0735833
0
0.0529552
0.0455584
0.0320557
0.0262119
0.0376138
0.039173
0.0191221
0.0459554
0.0859795
0
0
0.141464
0
0.0109541
0
0
0
0
0
0
0
0
0
0.00194255
0
0.137485
0
0.107628
0.102525
0
0
0.0250065
0
0.0497821
0
0.122986
0
0
0
0.041228
0
0.0153084
0
0.0463981
0
0.0124651
0.0583325
0
0.0456329
0.0218777
0
0.048523
0.014672
0.0526933
0.00509485
0.0377194
0.0538665
0.0133915
0.0396788
0
0.0465481
0.00350346
0.0434775
0
0
0.101532
0.0480208
0.0349696
0.0943738
0.0074526
0.0434118
0.0623631
0.038691
0.021456
0.0573864
0.0429137
0.0319716
0.0222772
0
0.0261213
0
0.114501
0.0244478
0.00448496
0
0.0346322
0.02875
0.031456
0.0207554
0.0190995
0.00994465
0.0315784
0.040567
0.0622418
0.0778388
0
0
0
0.0113091
0.0808239
0.0780796
0.031729
0.0417925
0
0
0.0185572
0.11352
0
0
0
0
0
0.0305026
0
0
0.0185408
0
0.0288758
0
0.0366283
0.0454539
0
0.0341878
0
0.0349136
0
0.0348467
0.0574082
0.0191368
0.0108394
0
0.0234504
0
0.0212424
0
0
0
0.0731182
0
0.0671066
0.0570347
0.0337054
0.0298157
0.0444281
0.0268399
0.0324626
0.053458
0.0510187
0.0414072
0
0.117509
0
0.0667345
0
0
0.00623216
0
0.00120446
0
0
0
0
0
0
0
0
0
0
0.0124954
0.0035015
0.0595718
0
0.120116
0
0.0691236
0.0309639
0.0369826
0
0.209469
0
0
0
0.0553491
0
0
0
0.00947042
0
0
0.0145051
0
0.0138153
0.0192623
0
0.0295883
0.0285761
0.0535234
0
0.0305421
0.0658037
0.00344513
0
0
0
0
0.0232654
0.0288973
0.0779735
0
0.0589078
0.00487541
0.0294199
0.0482335
0.0488597
0
0.0444189
0.0330467
0
0.0427732
0.0490248
0.0575533
0
0.178047
0.0728739
0
0
0
0
0
0
0.0224911
0
0.000814196
0.00396546
0.0458214
0.0368246
0.00121982
0.058646
0
0.0147332
0.0238556
0
0.0416628
0.0194765
0
0
0
0.0578883
0.0390504
0.0208408
0
0
0
0
0
0.0274718
0
0.0708967
0.0189902
0
0
0.0409848
0.00636819
0
0
0.0392992
0
0.0549793
0.0211732
0.0465106
0
0.0325439
0.0371304
0.0172186
0.00490666
0
0
0
0
0.0133694
0.0639831
0.0151085
0.00480863
0.0546574
0.043157
0.0354796
0.0691121
0
0.0567676
0.0490945
0
0.0435277
0.0496905
0.00135103
0
0.174961
0.1193
0
0.0292598
0.00689688
0.0157144
0
0
0
0
0
0
0
0
0.17668
0
0.1333
0
0.0850108
0.0207791
0.00683038
0
0.0301144
0.0901814
0
0.0107613
0
0.0419569
0
0.191809
0.0147635
0
0
0.0186
0
0
0
0
0.166903
0.0990011
0
0.0581339
0.0252345
0
0.0434465
0
0.0450132
0.0318117
0.0454189
0.021814
0.0128853
0.0603198
0.0300283
0.0317113
0
0.0248878
0
0
0
0
0.0433571
0
0.045334
0.0568733
0.0317242
0.0861814
0
0.0442097
0.0739932
0
0.0307611
0.0503172
0
0.0583153
0.0156807
0.173117
0
0
0
0.0132494
0
0
0
0
0.0077917
0
0.0136215
0.0462547
0.0585993
0
0
0
0
0.0358739
0
0.0612566
0
0.0621633
0
0.0942654
0
0
0.0144952
0.063159
0
0
0
0.0999111
0.0132389
0
0
0.0545715
0
0.0958254
0.0152914
0
0.00508911
0.0291471
0
0.0396841
0
0.0372623
0.0530715
0.0232709
0.0354937
0
0.0397148
0.0147463
0.0504883
0
0
0
0.0543017
0
0
0.0563233
0.00465304
0.0218755
0.0160061
0
0.093675
0
0.0119724
0.0939174
0.0151017
0.0204079
0.0428098
0
0.0801607
0
0
0.114558
0.0191429
0.00406682
0
0
0.0172326
0
0
0
0
0
0
0
0
0
0.0803417
0.0563534
0.0365876
0.0629578
0.107415
0
0.062593
0.0114583
0.00963021
0
0.139834
0
0.00545325
0.0346357
0.0772879
0
0
0
0.0213945
0.0104404
0
0.0410763
0
0
0.0817767
0
0
0.0370406
0
0.0612634
0.0246449
0.0258751
0.0170129
0.010053
0.00586832
0
0
0
0.0422298
0
0
0
0
0
0
0.0148135
0.0530987
0.0442489
0.0318575
0
0.0822293
0.0121876
0.0316273
0.0891616
0.0478841
0.0464235
0.0501977
0
0.0793375
0
0
0.193573
0.0377387
0
0.0192966
0.0328128
0.0120748
0.01805
0.00321514
0
0
0.0363897
0
0.0759785
0.0561841
0.0996096
0.0535626
0
0.0236941
0.032615
0.0470257
0
0
0
0.0636374
0.0747926
0
0.0291991
0.00579154
0.0341013
0
0
0
0
0
0.0136658
0.0430898
0
0
0.0731547
0
0.0743949
0.0165974
0
0.0386753
0
0.0375133
0.0409976
0.0452428
0.0339818
0
0.037356
0
0.0138323
0
0.0242946
0.0220733
0
0.0077837
0.00399233
0.062804
0.0374016
0.0318752
0
0.0624265
0.0469352
0
0.0598881
0.00160321
0.0523454
0.0756545
0.0444295
0.0242109
0.0526872
0
0.0724245
0.0568491
0
0.120052
0
0
0
0
0.00481287
0
0
0
0
0
0
0
0
0
0
0.100014
0.088192
0
0
0.0297816
0.053284
0
0
0.00781243
0.0402403
0
0
0.05819
0.050335
0.0311539
0
0
0.167288
0
0.0205943
0
0.107944
0
0.10011
0
0.0103462
0.0172791
0
0.0613057
0
0.0293534
0
0.0381865
0.0664247
0.0135935
0
0
0.00794811
0
0.0259264
0.0419819
0
0.0212665
0
0.0513118
0.0625943
0.0639834
0
0.0349692
0.0497646
0.0424108
0.0498299
0
0.060834
0.0615088
0.0447587
0.0091228
0.0474293
0
0
0.133488
0.0400566
0
0
0
0
0
0.0220039
0.0189869
0.00734283
0
0
0
0.0175337
0.0918368
0.0320091
0
0.0202513
0.0118542
0
0.0118283
0.00516599
0
0.00518819
0.0466109
0.0115045
0.0152006
0
0.0217603
0
0
0.0283705
0.0191416
0.0503883
0
0.0454576
0.0566124
0.0211123
0
0.0041426
0.0283088
0
0
0
0.0151707
0.0255093
0
0.0386939
0.00877152
0.0465142
0.0120655
0.0217891
0.033396
0.0160044
0
0.0106906
0.0313081
0
0.0135147
0.0435868
0
0.0188608
0.0415237
0
0
0.0691438
0
0.0105555
0.0362713
0.0488044
0.0367747
0
0.0570557
0.0528473
0.0564309
0.0166237
0.0526198
0
0
0.109648
0.116179
0
0.0035398
0
0.0132628
0
0
0
0
0
0
0.00641128
0
0
0
0.161874
0
0
0
0
0
0.0563209
0.171542
0
0.0212193
0.033529
0
0
0.0160794
0
0
0
0.0444093
0.0440555
0.0184437
0
0
0.07829
0.0396373
0
0.049123
0.0664306
0
0
0
0.0138776
0
0.0521172
0.025856
0.0211476
0.0331675
0.0386762
0.0122433
0.0325649
0
0.0199361
0.049302
0
0
0.0585692
0.0337032
0.0122342
0.058688
0.0350619
0
0.0752038
0.0547064
0.0336707
0
0.0350195
0.0125064
0
0.0497386
0.04599
0.0636388
0
0.0517985
0
0
0
0.0162979
0.00242611
0.0348305
0
0.0186255
0
0.0339906
0.00481172
0
0
0
0.00842002
0
0.0496163
0.0271798
0.0259414
0
0.0655292
0
0
0.0459547
0.0228896
0.0433104
0.0752999
0
0
0
0.015647
0
0
0.0406531
0
0
0.0449289
0.00854991
0.0466024
0
0
0.0191157
0
0
0
0.01895
0
0.0249417
0
0.0354428
0
0.0484778
0.047564
0.0286585
0.0169587
0.0248339
0
0.0410224
0
0.0301553
0
0
0
0.048928
0.0407699
0
0
0.068852
0
0.0546292
0
0.055372
0
0.0444951
0.000281371
0.0462549
0.0529283
0.0238249
0.0717847
0
0.0550557
0
0.0891296
0
0
0.149119
0
0
0.00862531
0
0
0
0.00958139
0
0
0.0190083
0.0214641
0
0
0
0
0
0
0.178032
0.178417
0.0680662
0.0670982
0
0
0
0
0
0.000101448
0
0
0.0434225
0
0
0.0166728
0.01053
0
0
0.0999214
0
0
0
0.0264054
0.00723818
0.0201544
0
0
0.0257148
0
0.0509157
0.0488146
0.0254538
0.0346539
0.0449384
0
0.0333021
0
0.0275928
0
0
0
0.0443094
0.0648273
0
0
0.072926
0.0653307
0.0455965
0
0.0635648
0
0.0643173
0.0155944
0.0526369
0.0676232
0
0.0819761
0
0.0593556
0
0.0108218
0.103769
0
0.126313
0
0
0.0194705
0.0304012
0.0148663
0
0
0
0
0.0185922
0
0.0107397
0.0999886
0.006387
0.0699078
0.0999935
0
0
0
0.0133015
0.0386073
0.0559644
0.0330255
0
0
0
0.00693114
0.0403015
0
0
0.0203765
0.0402968
0.0135787
0
0.040489
0.0804927
0.00238445
0.0715449
0
0
0.0197873
0.0498861
0.018262
0.0378198
0.0168256
0
0.02221
0
0.0258617
0.016353
0.0302647
0.0230502
0.0432008
0.0106116
0.0512669
0.0179717
0.0370803
0
0.0226716
0
0.0338346
0.0279684
0
0.0122385
0.0596918
0
0.055014
0
0.0719439
0
0.0668808
0.0270197
0.0234779
0.0867644
0
0.0831817
0
0.0713444
0.0130543
0
0.142887
0
0
0.0138153
0
0
0
0
0.00531994
0.0283382
0
0
0.0152395
0.00949065
0.0104354
0
0
0
0
0
0.102915
0.111721
0.0691398
0.0790727
0
0.0555068
0.0161172
0.0631744
0.0212229
0
0.0195866
0
0.0175755
0.00857724
0
0.0179419
0.0448951
0
0.0865735
0.0266097
0
0.0477565
0
0.0180139
0.0116234
0.048669
0
0.0573423
0.0424181
0
0.00714216
0.0240889
0.0170655
0.00671358
0.0356574
0.00806931
0.0477889
0.00361916
0.0384163
0.0373273
0.0412864
0
0.00977372
0
0
0
0
0
0.0399907
0
0.0943211
0
0.0723852
0
0.0623211
0.0317126
0
0.0970791
0.00545378
0.0898729
0
0.0309386
0.0729121
0
0.163438
0.0999782
0
0
0.025228
0
0.0022312
0
0
0
0
0.0025772
0.015996
0.0162576
0
0.0200967
0.0998268
0.0345814
0.00887204
0.00761829
0
0
0
0.0178245
0.0259442
0
0.0315244
0
0
0.0457106
0
0.0148205
0.0579431
0.00748958
0
0
0
0.054221
0.0158003
0.00624765
0.0668303
0
0.0249239
0
0.0216384
0.022842
0.0352526
0.0094201
0
0.0176906
0.00274392
0
0.0158104
0.0253957
0.0246314
0.0314202
0.0215761
0.052122
0.00825007
0.0527346
0.0357302
0.0423956
0
0.0219142
0
0
0
0
0
0.0564145
0
0.120869
0
0.0726944
0
0.0612623
0.0600026
0
0.100623
0
0.0953685
0
0
0.0699099
0
0.155979
0.132701
0
0.00144428
0
0.0176115
0
0.00720147
0.0180583
0.0272056
0
0
0.0112293
0
0
0.0132071
0
0
0
0.0930072
0
0
0
0
0
0.00871482
0
0.08776
0.00136688
0
0.0284612
0.00140486
0
0
0.0600781
0.0198231
0
0
0.0686376
0.0464924
0
0.0899623
0
0
0
0.00146897
0.0280177
0.00858298
0.0143879
0
0.0580045
0
0.0316139
0.0280101
0.0443656
0.0269928
0.0264951
0.041806
0.0405499
0.0143986
0.047263
0.0178252
0.0431466
0
0.0451388
0
0
0
0
0
0.0936019
0
0.101855
0
0.0742155
0.00915339
0.0538867
0.0844079
0
0.0992544
0
0.0859273
0
0
0.0652503
0.0660221
0
0.0444332
0.0849694
0.0267501
0
0
0.00482764
0
0.017238
0
0
0
0.00993989
0.0128403
0
0.0864012
0
0.0667984
0.0974788
0
0
0
0
0.0284359
0
0
0.0279239
0
0
0
0.0327415
0.0387199
0
0.00535602
0
0.000182874
0
0.0074893
0
0.0314933
0.0340392
0
0.0386101
0
0.0449397
0
0
0.0154235
0
0.00659436
0
0.0264047
0.00642391
0.0343211
0.00202472
0.0386718
0.0350104
0.026525
0.0257435
0.0546699
0.0417619
0.0491897
0.00380033
0.0480665
0
0.0420458
0
0
0
0.0229417
0
0.115586
0
0.0750236
0
0.0723438
0.0148935
0.00198898
0.097966
0
0.101363
0
0.0553957
0
0
0.0455731
0.0327408
0
0
0.177557
0
0
0.0343022
0.0195838
0.0138784
0.00629035
0.0270599
0.00271572
0
0
0
0
0.00927815
0
0.013353
0
0
0.160781
0.00154781
0
0
0.115719
0
0.0616325
0.0725996
0
0
0
0.0471694
0
0
0.018758
0
0
0
0.016999
0.0145223
0
0.0749346
0
0.0738565
0
0
0.017104
0
0.0492475
0
0.00218529
0.0323443
0.0531749
0
0.0145107
0
0.0274852
0.054962
0.0370343
0
0.0535357
0.0427033
0.0496405
0
0.0518915
0
0.0558171
0
0
0.00266481
0.0615066
0
0.0924527
0
0.0915587
0
0.0605815
0.00974265
0
0.0998125
0
0.100721
0
0.00753149
0
0.0248974
0.0409797
0.0166754
0
0
0.182734
0
0
0.0169085
0
0
0.0119089
0
0
0.000568453
0.0105258
0.00651001
0.031187
0.0541223
0
0.0755043
0
0.052495
0
0
0
0.00712615
0
0
0.023685
0
0.0273255
0.0160053
0.0259071
0
0.0207424
0
0
0.0467907
0
0
0
0.012364
0.0457866
0
0.066964
0
0.0259536
0.0246916
0
0.0385685
0
0.0378718
0
0.0223506
0.000957832
0.0323179
0
0.0217894
0.0231808
0.021967
0.0124052
0.0486294
0
0.0595111
0.0572724
0.0507493
0
0.0571624
0
0.026235
0.0358613
0
0
0.0770621
0
0.063152
0
0.108929
0
0.0476972
0.0207593
0
0.10268
0
0.0982825
0
0
0
0.0261526
0.067537
0.0792104
0
0
0.202347
0.0442405
0
0.0157537
0.00563276
0.025794
0.0105586
0.0039194
0.0110369
0
0.00365033
0
0
0
0.114083
0
0
0.000624437
0
0
0
0
0.138161
0.129359
0
0.0621639
0
0.0282242
0.0408844
0.0048724
0.062127
0.00587182
0
0
0
0.0153546
0.0133513
0
0
0.0541835
0
0.0701003
0
0.0443391
0
0
0.00950621
0
0.0440771
0.00272719
0.0525851
0.0179216
0.0517961
0
0.0223237
0.0171951
0.0373974
0
0.0493074
0
0.035585
0.0616852
0.0434301
0
0.0634304
0
0.0363215
0.0531495
0
0
0.0677551
0
0.0874022
0
0.10045
0.0130927
0.0720483
0.00289903
0
0.0892472
0
0.0857261
0
0.0228228
0.000275487
0.00944923
0.0860706
0
0.114188
0
0.198552
0.0201207
0
0
0
0
0.00800018
0
0
0.00398121
0.00124259
0
0.0183698
0.0507066
0
0.0277297
0
0.0719628
0.00462612
0.0685235
0
0.0189006
0
0
0
0.0682565
0.0341834
0
0
0.0517238
0
0.0370752
0
0
0
0
0
0.0223373
0
0
0.0457691
0
0.0503935
0
0.0203791
0.00348104
0
0.0144286
0
0.0366956
0.00807638
0.0399665
0
0.052672
0
0.0206864
0.046018
0.0398298
0.0159815
0.0497454
0
0.0317526
0.0457538
0.0432138
0
0.0689246
0.00158955
0.0324759
0.0276216
0
0
0.0415975
0
0.116444
0
0.0862725
0.0451552
0.0261721
0.02577
0
0.0790593
0
0.0524623
0.0173112
0.00556647
0.0284279
0
0.00547159
0
0.184253
0.0300262
0
0
0
0.0429708
0.00766329
0.0299519
0
0
0.00808774
0
0
0
0
0
0
0
0.13767
0.0271165
0
0
0.140906
0.0568806
0.0138439
0
0.00488296
0.00147118
0.0165263
0.0559004
0
0
0.0430953
0
0.00125178
0
0.0696954
0.00234358
0
0
0.00302113
0
0
0.0669341
0
0
0
0
0.0457362
0
0.0688376
0.0469948
0.0165432
0.00802148
0.0418271
0
0.018051
0.0507716
0.012319
0.00053955
0.0502148
0.0252467
0.0667989
0.0109334
0.0487428
0.0276759
0.0567389
0
0.0767623
0
0.00374746
0
0
0.0522626
0.0322993
0
0.106176
0.0403871
0.0761779
0.0623948
0.00343534
0.0398339
0
0.0432101
0
0.01077
0.0177113
0
0.0429322
0
0
0
0.192747
0.0795072
0
0.0472754
0
0
0.00124814
0
0
0
0
0.00331506
0
0.00502387
0.0115551
0
0.000242022
0.051436
0.000344868
0
0.0641856
0.0507834
0
0.0854483
0.0369633
0.013586
0
0
0.0695093
0
0.00546343
0.00852106
0
0.0566516
0
0.0282496
0
0.0303467
0.0482532
0
0
0
0.0123473
0
0.0357485
0
0
0
0
0.0190139
0.0291349
0
0.0314482
0.0116208
0
0.0580731
0
0.0555972
0.00675604
0.0429926
0.049227
0.0496492
0.0202937
0.0745762
0.0223376
0.04943
0.0431015
0.0488912
0.00417678
0.0588304
0
0.00617306
0.00536576
0
0.0352877
0.0790886
0
0.0772938
0.0714031
0.0363591
0.0714804
0.0182608
0.043608
0
0.0209809
0
0.00369447
0.0101525
0
0.0522875
0.0211166
0
0
0.151156
0.165653
0
0
0
0.0460994
0.0355463
0.0136108
0
0
0.00849786
0.0040601
0
0
0
0
0
0
0
0
0
0
0
0.00904209
0
0.024485
0.042935