/*--------------------------------*- C++ -*----------------------------------*\
| =========                 |                                                 |
| \\      /  F ield         | OpenFOAM: The Open Source CFD Toolbox           |
|  \\    /   O peration     | Version:  2206                                  |
|   \\  /    A nd           | Website:  www.openfoam.com                      |
|    \\/     M anipulation  |                                                 |
\*---------------------------------------------------------------------------*/
FoamFile
{
    version     2.0;
    format      ascii;
    arch        "LSB;label=32;scalar=64";
    class       volScalarField;
    location    "150";
    object      nut;
}
// * * * * * * * * * * * * * * * * * * * * * * * * * * * * * * * * * * * * * //

dimensions      [0 2 -1 0 0 0 0];

internalField   nonuniform List<scalar> 
93840
(
1.00151e-07
1.59051e-08
7.06074e-08
5.13681e-08
1.93347e-08
3.80795e-08
2.24991e-08
4.88086e-08
2.38284e-08
2.45961e-08
3.87912e-08
1.96965e-08
4.81962e-08
1.96787e-08
3.93315e-08
2.69433e-08
4.32351e-08
2.80671e-08
4.65145e-08
1.49036e-08
2.04995e-08
3.12656e-08
2.07436e-08
3.93754e-08
4.11318e-08
3.84767e-08
2.68271e-08
3.2282e-08
2.52787e-08
3.72124e-08
2.66762e-08
3.32718e-08
2.68106e-08
3.60618e-08
2.62531e-08
1.06984e-08
3.41906e-08
2.1076e-08
3.19005e-08
3.20726e-08
3.03267e-08
2.87774e-08
3.36064e-08
2.11884e-08
4.42395e-08
2.36622e-08
3.73324e-08
2.70369e-08
2.68391e-08
2.6616e-08
2.91336e-08
2.70532e-08
3.14344e-08
1.62912e-08
1.37573e-08
3.3865e-08
2.40152e-08
2.99564e-08
2.7413e-08
2.88242e-08
2.76382e-08
3.00439e-08
2.64644e-08
2.92843e-08
2.80517e-08
4.75926e-08
2.60242e-08
3.63156e-08
2.83873e-08
2.80427e-08
2.73575e-08
2.9293e-08
2.57081e-08
2.7511e-08
2.43379e-08
2.71694e-08
2.31906e-08
1.64915e-08
3.21836e-08
2.46065e-08
2.9292e-08
2.84301e-08
3.07842e-08
2.9085e-08
2.82593e-08
2.5122e-08
2.8931e-08
2.56205e-08
2.72809e-08
2.43608e-08
4.73831e-08
2.67148e-08
3.39625e-08
2.92307e-08
2.83609e-08
2.76155e-08
3.0007e-08
2.45729e-08
2.99038e-08
2.58421e-08
2.71767e-08
2.68433e-08
2.99768e-08
2.27091e-08
1.95315e-08
3.26318e-08
2.61146e-08
2.85125e-08
2.89008e-08
3.05414e-08
2.83239e-08
2.81637e-08
2.71545e-08
2.77543e-08
2.59113e-08
2.84258e-08
2.61541e-08
3.0468e-08
2.35677e-08
4.23161e-08
2.7034e-08
3.35645e-08
3.04649e-08
2.88742e-08
2.81181e-08
2.99854e-08
2.55638e-08
2.83929e-08
2.57069e-08
2.88115e-08
2.68451e-08
2.7007e-08
2.70196e-08
3.05385e-08
2.28195e-08
2.25756e-08
3.13091e-08
2.67964e-08
2.88086e-08
2.90015e-08
2.99459e-08
2.75618e-08
2.86345e-08
2.57846e-08
2.87116e-08
2.67499e-08
2.78408e-08
2.63226e-08
2.89284e-08
2.56963e-08
3.0033e-08
2.23766e-08
3.7783e-08
2.7103e-08
3.25898e-08
3.0832e-08
2.95593e-08
2.90905e-08
3.06439e-08
2.58123e-08
2.84481e-08
2.6372e-08
2.80054e-08
2.64996e-08
2.81171e-08
2.7119e-08
2.75993e-08
2.75152e-08
3.02699e-08
2.20396e-08
2.46241e-08
3.21794e-08
2.8165e-08
2.8454e-08
2.9065e-08
3.05533e-08
2.84852e-08
2.91566e-08
2.62442e-08
2.84935e-08
2.55134e-08
2.81674e-08
2.74112e-08
2.8123e-08
2.57895e-08
2.82068e-08
2.55047e-08
3.07879e-08
2.20528e-08
3.71211e-08
2.43999e-08
3.14274e-08
3.08889e-08
3.01398e-08
2.95322e-08
3.0443e-08
2.67926e-08
2.95321e-08
2.57808e-08
2.84312e-08
2.64084e-08
2.79891e-08
2.6645e-08
2.85997e-08
2.71487e-08
2.66427e-08
2.67658e-08
3.06169e-08
2.23864e-08
2.70416e-08
3.62203e-08
2.89987e-08
2.87368e-08
2.92548e-08
3.03663e-08
2.89846e-08
2.98979e-08
2.68824e-08
2.9403e-08
2.63915e-08
2.82466e-08
2.59416e-08
2.79507e-08
2.6972e-08
2.80793e-08
2.57535e-08
2.8321e-08
2.6296e-08
2.98325e-08
2.24112e-08
3.69849e-08
2.52297e-08
3.0451e-08
3.04663e-08
3.01296e-08
2.9549e-08
3.09362e-08
2.78909e-08
2.92225e-08
2.65003e-08
2.92648e-08
2.58996e-08
2.84609e-08
2.5934e-08
2.76066e-08
2.66102e-08
2.86198e-08
2.72027e-08
2.70713e-08
2.68411e-08
2.97741e-08
2.21694e-08
2.70406e-08
3.59827e-08
2.90966e-08
2.85036e-08
2.92179e-08
2.9986e-08
2.9424e-08
3.06314e-08
2.72261e-08
2.91051e-08
2.60445e-08
2.90407e-08
2.58663e-08
2.86393e-08
2.60338e-08
2.79304e-08
2.68337e-08
2.80205e-08
2.57206e-08
2.76316e-08
2.56397e-08
3.0443e-08
2.19635e-08
3.61163e-08
2.68686e-08
2.96149e-08
3.11041e-08
3.04942e-08
2.98759e-08
3.11896e-08
2.8936e-08
2.96065e-08
2.76126e-08
2.91763e-08
2.68874e-08
2.91873e-08
2.61341e-08
2.77674e-08
2.63264e-08
2.78827e-08
2.66671e-08
2.80969e-08
2.73491e-08
2.69196e-08
2.66212e-08
2.98283e-08
2.17489e-08
2.89137e-08
3.49528e-08
2.9463e-08
2.80819e-08
2.92822e-08
3.03973e-08
2.99296e-08
3.12334e-08
2.70997e-08
3.05938e-08
2.66219e-08
2.918e-08
2.62063e-08
2.87928e-08
2.55343e-08
2.856e-08
2.58809e-08
2.77306e-08
2.6542e-08
2.80754e-08
2.50241e-08
2.7821e-08
2.55822e-08
3.05896e-08
2.15948e-08
3.20242e-08
2.76723e-08
2.98038e-08
3.12485e-08
3.07723e-08
3.00741e-08
3.14952e-08
2.99329e-08
3.09627e-08
2.84668e-08
2.89228e-08
2.78135e-08
2.89422e-08
2.72429e-08
2.93767e-08
2.60873e-08
2.79139e-08
2.63323e-08
2.78416e-08
2.66987e-08
2.76692e-08
2.73889e-08
2.68799e-08
2.61018e-08
2.97378e-08
2.15953e-08
3.07623e-08
3.37569e-08
2.98153e-08
2.79461e-08
2.94077e-08
3.08017e-08
2.93508e-08
3.12783e-08
2.81935e-08
2.97058e-08
2.69004e-08
2.99601e-08
2.652e-08
2.93824e-08
2.55522e-08
2.91502e-08
2.55345e-08
2.81334e-08
2.55626e-08
2.74875e-08
2.63053e-08
2.81474e-08
2.52694e-08
2.80863e-08
2.58227e-08
2.90358e-08
2.18575e-08
3.24932e-08
2.8037e-08
2.92932e-08
3.05187e-08
3.04788e-08
3.01655e-08
3.08575e-08
2.90918e-08
3.13692e-08
2.9164e-08
3.01497e-08
2.7895e-08
2.91277e-08
2.66517e-08
2.86334e-08
2.68498e-08
2.90075e-08
2.64095e-08
2.78057e-08
2.59562e-08
2.70991e-08
2.60169e-08
2.75818e-08
2.73705e-08
2.74577e-08
2.59662e-08
2.87667e-08
2.15784e-08
3.09497e-08
3.2886e-08
2.98238e-08
2.76197e-08
2.91836e-08
3.03673e-08
2.84895e-08
3.11597e-08
2.8588e-08
3.07449e-08
2.78724e-08
3.04205e-08
2.69356e-08
3.00358e-08
2.67391e-08
2.95582e-08
2.55035e-08
2.8667e-08
2.56615e-08
2.78596e-08
2.60178e-08
2.7632e-08
2.62845e-08
2.81848e-08
2.53209e-08
2.8156e-08
2.59105e-08
2.88396e-08
2.14868e-08
3.17624e-08
2.86867e-08
2.89089e-08
2.97112e-08
2.97697e-08
2.99768e-08
3.04722e-08
2.95027e-08
3.16461e-08
2.79938e-08
3.12205e-08
2.81245e-08
2.99178e-08
2.71677e-08
2.95275e-08
2.62693e-08
2.91001e-08
2.65719e-08
2.91581e-08
2.66074e-08
2.75895e-08
2.54218e-08
2.76751e-08
2.58423e-08
2.77339e-08
2.76053e-08
2.70946e-08
2.59487e-08
2.89653e-08
2.12122e-08
3.11865e-08
3.2378e-08
3.00406e-08
2.74671e-08
2.88813e-08
3.026e-08
2.77096e-08
3.08546e-08
2.81583e-08
3.18534e-08
2.76678e-08
3.05656e-08
2.7855e-08
3.01671e-08
2.71373e-08
2.98966e-08
2.68071e-08
3.03687e-08
2.56138e-08
2.89197e-08
2.56842e-08
2.77911e-08
2.55282e-08
2.77677e-08
2.59968e-08
2.85496e-08
2.48848e-08
2.75092e-08
2.57281e-08
2.91885e-08
2.11627e-08
3.27188e-08
2.88986e-08
2.86531e-08
2.9143e-08
2.89482e-08
2.91506e-08
2.98414e-08
2.85549e-08
3.07213e-08
2.75714e-08
3.147e-08
2.85826e-08
3.08667e-08
2.79112e-08
3.00473e-08
2.68214e-08
3.03263e-08
2.66387e-08
2.9396e-08
2.70488e-08
2.94103e-08
2.61815e-08
2.77447e-08
2.49953e-08
2.80543e-08
2.61294e-08
2.77079e-08
2.74116e-08
2.71398e-08
2.5503e-08
2.91494e-08
2.14755e-08
3.2195e-08
3.16663e-08
2.98882e-08
2.76406e-08
2.84311e-08
3.00392e-08
2.73718e-08
3.02426e-08
2.77875e-08
3.07915e-08
2.7524e-08
3.06928e-08
2.77966e-08
3.04018e-08
2.78767e-08
2.97962e-08
2.6973e-08
2.9616e-08
2.68977e-08
3.03388e-08
2.56608e-08
2.90907e-08
2.57502e-08
2.82292e-08
2.54151e-08
2.80081e-08
2.60752e-08
2.89014e-08
2.49848e-08
2.74886e-08
2.60964e-08
2.90976e-08
2.13093e-08
3.2904e-08
2.87204e-08
2.84673e-08
2.96018e-08
2.86248e-08
2.83548e-08
2.98279e-08
2.80952e-08
3.03496e-08
2.72096e-08
3.06377e-08
2.79765e-08
3.10064e-08
2.83467e-08
2.96988e-08
2.79325e-08
2.98753e-08
2.68016e-08
3.02389e-08
2.71139e-08
2.96533e-08
2.69206e-08
2.94951e-08
2.62238e-08
2.74343e-08
2.50566e-08
2.79816e-08
2.62998e-08
2.72446e-08
2.72449e-08
2.71298e-08
2.53472e-08
2.837e-08
2.12501e-08
3.21569e-08
3.07009e-08
2.94588e-08
2.83161e-08
2.88542e-08
2.99794e-08
2.82123e-08
2.97473e-08
2.7851e-08
2.96551e-08
2.73484e-08
3.03748e-08
2.75695e-08
3.06693e-08
2.78719e-08
2.93368e-08
2.76546e-08
2.93447e-08
2.69115e-08
2.97037e-08
2.70904e-08
3.04998e-08
2.58436e-08
2.92996e-08
2.59804e-08
2.84963e-08
2.55995e-08
2.79972e-08
2.61259e-08
2.88326e-08
2.5251e-08
2.8247e-08
2.59518e-08
2.89877e-08
2.14754e-08
3.39851e-08
2.85962e-08
2.80611e-08
2.92932e-08
2.85109e-08
2.77511e-08
2.93863e-08
2.77317e-08
3.09228e-08
2.61553e-08
3.11156e-08
2.71585e-08
3.06564e-08
2.80268e-08
3.02971e-08
2.87351e-08
2.98077e-08
2.76849e-08
2.97619e-08
2.68214e-08
3.01196e-08
2.72406e-08
2.94832e-08
2.662e-08
2.93554e-08
2.60404e-08
2.77626e-08
2.52401e-08
2.78395e-08
2.60296e-08
2.78221e-08
2.65995e-08
2.74874e-08
2.57298e-08
2.89357e-08
2.11294e-08
3.29748e-08
3.00934e-08
2.93818e-08
2.93471e-08
2.91662e-08
2.94215e-08
2.7879e-08
2.92949e-08
2.79542e-08
2.89236e-08
2.73065e-08
2.96799e-08
2.73549e-08
3.04366e-08
2.76326e-08
2.99989e-08
2.78683e-08
2.93645e-08
2.76729e-08
2.93142e-08
2.70047e-08
2.99141e-08
2.7345e-08
3.01385e-08
2.60065e-08
2.97445e-08
2.5669e-08
2.82777e-08
2.52559e-08
2.81245e-08
2.62687e-08
2.87508e-08
2.51106e-08
2.87947e-08
2.57592e-08
2.93926e-08
2.11147e-08
3.42843e-08
2.85567e-08
2.75792e-08
2.90609e-08
2.81042e-08
2.73154e-08
2.92214e-08
2.7683e-08
3.16839e-08
2.61358e-08
3.12264e-08
2.64646e-08
3.07126e-08
2.75285e-08
3.02137e-08
2.83992e-08
3.01148e-08
2.7973e-08
2.93252e-08
2.76432e-08
2.96972e-08
2.68924e-08
3.02086e-08
2.71164e-08
2.97415e-08
2.65503e-08
2.91089e-08
2.60882e-08
2.78531e-08
2.51285e-08
2.7713e-08
2.59109e-08
2.80492e-08
2.62086e-08
2.76849e-08
2.52292e-08
2.99139e-08
2.10715e-08
3.39235e-08
2.98957e-08
2.97246e-08
3.01824e-08
2.94689e-08
2.9509e-08
2.81143e-08
3.00273e-08
2.85903e-08
2.95208e-08
2.72858e-08
2.88745e-08
2.75972e-08
2.98721e-08
2.76949e-08
2.97887e-08
2.78729e-08
2.98427e-08
2.79036e-08
2.93334e-08
2.74999e-08
2.9532e-08
2.71481e-08
3.00577e-08
2.72941e-08
2.95948e-08
2.58557e-08
2.96802e-08
2.54559e-08
2.82466e-08
2.54895e-08
2.7841e-08
2.58828e-08
2.89853e-08
2.54669e-08
2.84975e-08
2.52603e-08
2.97116e-08
2.11587e-08
3.4334e-08
2.87219e-08
2.77832e-08
2.97159e-08
2.87018e-08
2.79103e-08
2.96077e-08
2.84226e-08
3.12647e-08
2.81195e-08
3.17986e-08
2.58045e-08
3.07352e-08
2.67014e-08
3.01535e-08
2.78446e-08
2.96386e-08
2.81451e-08
2.97333e-08
2.77419e-08
2.90476e-08
2.73845e-08
2.96669e-08
2.67276e-08
2.96784e-08
2.782e-08
3.00231e-08
2.71164e-08
2.8848e-08
2.62811e-08
2.77795e-08
2.53059e-08
2.7677e-08
2.57745e-08
2.8087e-08
2.63971e-08
2.8091e-08
2.53815e-08
3.00829e-08
2.07118e-08
3.44395e-08
2.9634e-08
2.9974e-08
3.08841e-08
2.96633e-08
2.98181e-08
2.89593e-08
3.07321e-08
2.91017e-08
3.14489e-08
2.77769e-08
3.0172e-08
2.77531e-08
2.93926e-08
2.74882e-08
3.00351e-08
2.79644e-08
2.96675e-08
2.77533e-08
2.96507e-08
2.7666e-08
2.91375e-08
2.72997e-08
2.98129e-08
2.74202e-08
2.97606e-08
2.72602e-08
2.96794e-08
2.61205e-08
2.9525e-08
2.57663e-08
2.79869e-08
2.54886e-08
2.80858e-08
2.57325e-08
2.93636e-08
2.47883e-08
2.84615e-08
2.53879e-08
3.01887e-08
2.05188e-08
3.4824e-08
2.8958e-08
2.78165e-08
2.98561e-08
2.86407e-08
2.82383e-08
2.99023e-08
2.9803e-08
3.08941e-08
2.95755e-08
3.15354e-08
2.80337e-08
3.00408e-08
2.65358e-08
2.97429e-08
2.68686e-08
2.98804e-08
2.7225e-08
2.97717e-08
2.79177e-08
2.92969e-08
2.75748e-08
2.91365e-08
2.71464e-08
2.96725e-08
2.72539e-08
3.00029e-08
2.73558e-08
2.95602e-08
2.68651e-08
2.86202e-08
2.61589e-08
2.79095e-08
2.50993e-08
2.76352e-08
2.58828e-08
2.8077e-08
2.68442e-08
2.84784e-08
2.52499e-08
3.1128e-08
2.05329e-08
3.42275e-08
2.93484e-08
2.97215e-08
3.12745e-08
3.01444e-08
3.06014e-08
2.95894e-08
3.15407e-08
2.87501e-08
3.21979e-08
2.86322e-08
3.15619e-08
2.78305e-08
3.05227e-08
2.73605e-08
2.93414e-08
2.75747e-08
3.01819e-08
2.78808e-08
2.95075e-08
2.74886e-08
2.91854e-08
2.74484e-08
2.93056e-08
2.72321e-08
2.95628e-08
2.77243e-08
2.98321e-08
2.76933e-08
2.92854e-08
2.60986e-08
2.93832e-08
2.57172e-08
2.79478e-08
2.54537e-08
2.79789e-08
2.56579e-08
3.03517e-08
2.42509e-08
2.89768e-08
2.52596e-08
3.04054e-08
2.05775e-08
3.49517e-08
2.90788e-08
2.75062e-08
3.01277e-08
2.87143e-08
2.88376e-08
2.97559e-08
3.04279e-08
3.02802e-08
2.92351e-08
3.1253e-08
2.95401e-08
3.10518e-08
2.87851e-08
3.03498e-08
2.68304e-08
2.99032e-08
2.70373e-08
2.96909e-08
2.74095e-08
2.92813e-08
2.79119e-08
2.93221e-08
2.75251e-08
2.92418e-08
2.72838e-08
2.96115e-08
2.73399e-08
2.98962e-08
2.77809e-08
2.97779e-08
2.69589e-08
2.87393e-08
2.63296e-08
2.75598e-08
2.51082e-08
2.75545e-08
2.56057e-08
2.81975e-08
2.6767e-08
2.82721e-08
2.51917e-08
3.07604e-08
2.053e-08
3.38833e-08
2.89e-08
2.99385e-08
3.15432e-08
3.06598e-08
3.10521e-08
2.91591e-08
3.17651e-08
2.88131e-08
3.15504e-08
2.86963e-08
3.25731e-08
2.82379e-08
3.16634e-08
2.77919e-08
3.00536e-08
2.7432e-08
2.94459e-08
2.73892e-08
3.01491e-08
2.79716e-08
2.92276e-08
2.74653e-08
2.93893e-08
2.71687e-08
2.93253e-08
2.7257e-08
2.95546e-08
2.77402e-08
2.98512e-08
2.74541e-08
2.93729e-08
2.59553e-08
2.89071e-08
2.59726e-08
2.78935e-08
2.53894e-08
2.80426e-08
2.56216e-08
3.06889e-08
2.43679e-08
2.87266e-08
2.53867e-08
3.05355e-08
2.03671e-08
3.43697e-08
2.88833e-08
2.72026e-08
2.99582e-08
2.91182e-08
2.8457e-08
2.87591e-08
3.02534e-08
3.02911e-08
2.73312e-08
3.13553e-08
2.90896e-08
3.1543e-08
2.9768e-08
3.0862e-08
2.86495e-08
2.97797e-08
2.70534e-08
2.97063e-08
2.71075e-08
2.95307e-08
2.71633e-08
2.92937e-08
2.74523e-08
2.93146e-08
2.73506e-08
2.92806e-08
2.70002e-08
2.95495e-08
2.71747e-08
2.972e-08
2.78258e-08
2.94015e-08
2.68574e-08
2.87393e-08
2.63149e-08
2.76528e-08
2.51664e-08
2.75595e-08
2.54832e-08
2.80284e-08
2.6749e-08
2.8117e-08
2.52078e-08
3.0404e-08
2.02496e-08
3.40299e-08
2.88572e-08
3.0278e-08
3.16683e-08
3.06969e-08
3.11104e-08
2.85601e-08
3.12131e-08
2.91485e-08
3.21774e-08
2.88593e-08
3.21673e-08
2.84218e-08
3.25709e-08
2.83242e-08
3.16067e-08
2.79299e-08
3.00284e-08
2.73826e-08
2.92558e-08
2.71392e-08
3.00157e-08
2.76211e-08
2.94958e-08
2.74902e-08
2.93244e-08
2.71581e-08
2.91371e-08
2.7504e-08
2.93328e-08
2.81262e-08
2.96365e-08
2.75889e-08
2.90581e-08
2.60263e-08
2.85921e-08
2.58883e-08
2.77489e-08
2.51934e-08
2.83448e-08
2.53985e-08
3.07297e-08
2.43042e-08
2.95347e-08
2.54753e-08
2.99755e-08
2.00237e-08
3.41728e-08
2.90514e-08
2.70121e-08
2.92239e-08
2.81581e-08
2.82915e-08
2.83582e-08
2.89998e-08
3.08776e-08
2.71888e-08
3.05427e-08
2.83976e-08
3.1159e-08
2.99508e-08
3.15635e-08
2.95838e-08
3.08496e-08
2.88967e-08
3.00668e-08
2.7354e-08
2.94915e-08
2.71086e-08
2.95906e-08
2.76957e-08
2.91271e-08
2.72419e-08
2.91406e-08
2.71168e-08
2.93398e-08
2.72014e-08
2.94949e-08
2.73559e-08
2.96536e-08
2.79026e-08
2.93286e-08
2.64267e-08
2.86788e-08
2.60235e-08
2.77755e-08
2.5145e-08
2.77499e-08
2.54243e-08
2.80211e-08
2.67511e-08
2.75236e-08
2.5199e-08
2.99997e-08
2.01213e-08
3.3662e-08
2.83101e-08
3.10472e-08
3.19876e-08
3.06898e-08
3.1139e-08
2.82071e-08
2.97481e-08
2.9311e-08
3.02569e-08
2.87776e-08
3.14793e-08
2.85575e-08
3.07726e-08
2.91477e-08
3.23566e-08
2.87463e-08
3.1929e-08
2.78113e-08
2.99792e-08
2.75432e-08
2.95449e-08
2.75093e-08
2.95017e-08
2.7376e-08
2.92671e-08
2.72013e-08
2.90194e-08
2.72679e-08
2.88093e-08
2.74266e-08
2.92146e-08
2.82163e-08
2.96316e-08
2.73445e-08
2.91465e-08
2.6301e-08
2.86683e-08
2.56527e-08
2.77486e-08
2.5123e-08
2.83257e-08
2.54884e-08
3.03448e-08
2.46133e-08
2.91346e-08
2.56746e-08
3.02684e-08
1.96539e-08
3.49044e-08
2.8989e-08
2.70723e-08
2.89868e-08
2.77729e-08
2.84151e-08
2.82131e-08
2.77833e-08
3.05701e-08
2.7792e-08
3.09966e-08
2.83973e-08
3.08614e-08
2.91181e-08
3.1363e-08
2.97937e-08
3.14232e-08
3.00534e-08
3.07853e-08
2.91543e-08
2.96035e-08
2.75045e-08
2.94534e-08
2.71867e-08
2.94284e-08
2.75385e-08
2.90728e-08
2.73052e-08
2.88023e-08
2.69534e-08
2.93093e-08
2.76437e-08
2.91987e-08
2.74377e-08
2.96045e-08
2.8012e-08
2.91662e-08
2.66914e-08
2.85962e-08
2.61212e-08
2.78702e-08
2.50829e-08
2.7791e-08
2.55408e-08
2.79007e-08
2.64062e-08
2.73992e-08
2.51368e-08
3.096e-08
1.97005e-08
3.5184e-08
2.84069e-08
3.10516e-08
3.16113e-08
3.02963e-08
3.08011e-08
2.82621e-08
2.87483e-08
2.82368e-08
3.06471e-08
2.77923e-08
3.0687e-08
2.87055e-08
3.1251e-08
2.86592e-08
3.1132e-08
2.932e-08
3.13077e-08
2.84777e-08
3.15998e-08
2.8337e-08
2.99407e-08
2.76715e-08
2.91526e-08
2.77147e-08
2.94911e-08
2.75224e-08
2.92087e-08
2.71611e-08
2.87846e-08
2.71158e-08
2.88394e-08
2.72164e-08
2.92877e-08
2.82218e-08
2.91548e-08
2.73682e-08
2.89695e-08
2.60096e-08
2.86985e-08
2.57171e-08
2.76505e-08
2.5267e-08
2.82684e-08
2.55738e-08
3.02317e-08
2.49274e-08
3.00079e-08
2.50476e-08
3.06261e-08
1.9694e-08
3.56571e-08
2.88813e-08
2.73598e-08
2.93455e-08
2.79063e-08
2.8593e-08
2.83511e-08
2.69485e-08
2.97277e-08
2.83502e-08
3.01805e-08
2.80242e-08
3.02075e-08
2.8105e-08
3.14007e-08
2.90757e-08
3.14328e-08
2.99952e-08
3.13371e-08
3.08466e-08
3.10388e-08
2.95126e-08
2.98659e-08
2.78238e-08
2.95225e-08
2.70913e-08
2.96337e-08
2.75188e-08
2.90062e-08
2.70098e-08
2.86484e-08
2.71669e-08
2.93612e-08
2.75053e-08
2.91744e-08
2.73173e-08
2.95002e-08
2.77185e-08
2.90541e-08
2.65663e-08
2.85691e-08
2.60096e-08
2.77573e-08
2.52526e-08
2.78795e-08
2.57212e-08
2.82011e-08
2.61993e-08
2.67824e-08
2.52612e-08
3.07606e-08
1.99095e-08
3.4976e-08
2.80226e-08
3.06957e-08
3.12895e-08
2.9825e-08
3.08854e-08
2.82869e-08
2.84306e-08
2.68233e-08
3.06133e-08
2.75439e-08
3.04843e-08
2.80885e-08
3.09167e-08
2.85233e-08
3.1094e-08
2.8645e-08
3.10049e-08
2.9265e-08
3.18341e-08
2.86695e-08
3.11594e-08
2.82123e-08
2.98822e-08
2.7736e-08
2.93905e-08
2.78354e-08
2.93495e-08
2.73732e-08
2.89825e-08
2.71019e-08
2.85104e-08
2.70637e-08
2.8664e-08
2.75557e-08
2.89993e-08
2.79153e-08
2.91987e-08
2.74938e-08
2.8963e-08
2.65105e-08
2.85196e-08
2.58514e-08
2.77437e-08
2.52581e-08
2.79858e-08
2.55297e-08
2.98051e-08
2.53128e-08
2.93317e-08
2.55321e-08
3.04652e-08
2.01111e-08
3.57576e-08
2.89913e-08
2.82244e-08
2.90721e-08
2.81109e-08
2.87395e-08
2.92066e-08
2.72974e-08
2.87039e-08
2.84964e-08
2.94139e-08
2.83744e-08
2.97439e-08
2.74801e-08
3.06204e-08
2.83578e-08
3.12877e-08
2.93933e-08
3.12067e-08
2.96641e-08
3.13889e-08
2.97943e-08
3.10025e-08
2.92699e-08
2.99663e-08
2.76115e-08
2.91893e-08
2.71349e-08
2.95548e-08
2.72986e-08
2.89641e-08
2.68917e-08
2.90163e-08
2.70095e-08
2.93882e-08
2.71731e-08
2.92242e-08
2.77724e-08
2.9318e-08
2.74773e-08
2.88646e-08
2.65731e-08
2.8392e-08
2.60092e-08
2.77095e-08
2.53378e-08
2.7586e-08
2.55976e-08
2.82442e-08
2.55958e-08
2.67485e-08
2.53469e-08
3.01738e-08
1.98207e-08
3.5873e-08
2.82614e-08
3.02871e-08
3.12753e-08
2.95853e-08
3.03874e-08
2.88018e-08
2.8659e-08
2.5877e-08
3.03214e-08
2.69977e-08
3.04881e-08
2.75546e-08
3.08717e-08
2.80373e-08
3.08877e-08
2.89333e-08
3.08426e-08
2.86968e-08
3.16289e-08
2.90367e-08
3.2381e-08
2.95873e-08
3.10146e-08
2.89282e-08
3.00046e-08
2.78798e-08
2.91697e-08
2.76419e-08
2.93282e-08
2.70975e-08
2.87562e-08
2.68164e-08
2.90274e-08
2.69884e-08
2.85199e-08
2.75962e-08
2.91083e-08
2.7657e-08
2.94474e-08
2.74833e-08
2.87726e-08
2.63602e-08
2.84652e-08
2.58919e-08
2.76422e-08
2.5376e-08
2.79248e-08
2.5291e-08
2.97781e-08
2.50294e-08
2.93209e-08
2.59365e-08
2.97531e-08
1.97915e-08
3.67433e-08
2.8914e-08
2.85277e-08
2.92486e-08
2.82653e-08
2.87545e-08
2.97802e-08
2.77467e-08
2.83331e-08
2.84271e-08
2.93633e-08
2.84075e-08
2.96668e-08
2.80916e-08
3.01603e-08
2.76462e-08
3.06016e-08
2.90077e-08
3.09104e-08
2.91505e-08
3.11586e-08
2.98818e-08
3.08851e-08
3.08065e-08
3.10744e-08
2.90134e-08
2.99878e-08
2.78505e-08
2.90956e-08
2.72125e-08
2.95837e-08
2.71069e-08
2.88566e-08
2.68304e-08
2.89057e-08
2.68201e-08
2.91256e-08
2.74238e-08
2.90599e-08
2.77176e-08
2.9213e-08
2.73523e-08
2.87617e-08
2.67859e-08
2.83978e-08
2.59728e-08
2.78003e-08
2.54257e-08
2.75434e-08
2.56654e-08
2.87035e-08
2.58587e-08
2.70526e-08
2.56054e-08
2.98431e-08
1.99323e-08
3.65961e-08
2.81673e-08
2.97812e-08
3.04421e-08
2.9491e-08
3.02669e-08
2.92448e-08
2.9451e-08
2.5698e-08
3.04293e-08
2.71449e-08
3.05807e-08
2.686e-08
3.03931e-08
2.7544e-08
3.04313e-08
2.80644e-08
3.05834e-08
2.92121e-08
3.06103e-08
2.88952e-08
3.11643e-08
2.89026e-08
3.16121e-08
2.92983e-08
3.09961e-08
2.90417e-08
2.99818e-08
2.78547e-08
2.9149e-08
2.73226e-08
2.92692e-08
2.70417e-08
2.88293e-08
2.66548e-08
2.88894e-08
2.70801e-08
2.86458e-08
2.72299e-08
2.90324e-08
2.7593e-08
2.94115e-08
2.74591e-08
2.86471e-08
2.60827e-08
2.83002e-08
2.62336e-08
2.75442e-08
2.55018e-08
2.78635e-08
2.53542e-08
2.90106e-08
2.50289e-08
2.86557e-08
2.5622e-08
2.94547e-08
1.99518e-08
3.77767e-08
2.90581e-08
2.9555e-08
2.93163e-08
2.85685e-08
2.87314e-08
2.99819e-08
2.84892e-08
2.81288e-08
2.8612e-08
2.93284e-08
2.83302e-08
2.99418e-08
2.8385e-08
2.98622e-08
2.83286e-08
2.99815e-08
2.84175e-08
3.04353e-08
2.89682e-08
3.05063e-08
2.9122e-08
3.1183e-08
3.01167e-08
3.12576e-08
3.0711e-08
3.10167e-08
2.8973e-08
3.00814e-08
2.77724e-08
2.90345e-08
2.73446e-08
2.92489e-08
2.70296e-08
2.8961e-08
2.67184e-08
2.87085e-08
2.70779e-08
2.87575e-08
2.73689e-08
2.90136e-08
2.75699e-08
2.92699e-08
2.73565e-08
2.86281e-08
2.65474e-08
2.83763e-08
2.60392e-08
2.77755e-08
2.53585e-08
2.75555e-08
2.57004e-08
2.87572e-08
2.60462e-08
2.81644e-08
2.54317e-08
2.95202e-08
1.96535e-08
3.7943e-08
2.81511e-08
2.98609e-08
3.09722e-08
2.99608e-08
3.08307e-08
2.98075e-08
3.06318e-08
2.61051e-08
2.99789e-08
2.73417e-08
3.07876e-08
2.70063e-08
3.05405e-08
2.71641e-08
3.03329e-08
2.75726e-08
3.02394e-08
2.81489e-08
3.02634e-08
2.89694e-08
3.09678e-08
2.87529e-08
3.15039e-08
2.91029e-08
3.12388e-08
2.97042e-08
3.14308e-08
2.89939e-08
3.01751e-08
2.75636e-08
2.90916e-08
2.74017e-08
2.93049e-08
2.69353e-08
2.88253e-08
2.67163e-08
2.86471e-08
2.70725e-08
2.8745e-08
2.73077e-08
2.92319e-08
2.75985e-08
2.9247e-08
2.72662e-08
2.85451e-08
2.627e-08
2.82864e-08
2.56701e-08
2.74174e-08
2.5618e-08
2.74549e-08
2.55609e-08
2.86584e-08
2.52194e-08
2.80884e-08
2.53708e-08
2.92473e-08
1.94484e-08
3.79431e-08
2.90006e-08
2.94073e-08
2.9605e-08
2.86517e-08
2.89591e-08
2.9964e-08
2.90551e-08
2.85875e-08
2.80996e-08
2.89098e-08
2.8627e-08
2.98561e-08
2.84953e-08
2.99719e-08
2.88899e-08
3.00824e-08
2.88659e-08
2.9824e-08
2.89912e-08
3.04569e-08
2.89741e-08
3.07312e-08
2.88709e-08
3.13569e-08
3.02404e-08
3.11199e-08
3.02627e-08
3.12932e-08
2.88714e-08
3.0268e-08
2.79909e-08
2.9003e-08
2.71615e-08
2.95337e-08
2.69023e-08
2.88838e-08
2.67155e-08
2.85526e-08
2.69783e-08
2.87414e-08
2.71345e-08
2.92014e-08
2.75095e-08
2.92429e-08
2.7136e-08
2.84682e-08
2.64251e-08
2.82133e-08
2.64107e-08
2.75509e-08
2.54411e-08
2.74734e-08
2.55887e-08
2.85774e-08
2.61799e-08
2.81954e-08
2.49604e-08
2.94998e-08
1.94594e-08
3.80049e-08
2.81612e-08
2.99359e-08
2.96396e-08
2.98827e-08
3.07441e-08
2.9549e-08
3.11915e-08
2.68493e-08
2.98626e-08
2.7908e-08
3.04026e-08
2.71493e-08
3.04252e-08
2.72943e-08
3.00217e-08
2.72863e-08
3.03448e-08
2.79081e-08
3.01575e-08
2.79497e-08
3.06626e-08
2.86546e-08
3.08937e-08
2.8764e-08
3.13936e-08
2.93103e-08
3.13607e-08
2.98889e-08
3.08051e-08
2.89808e-08
3.00521e-08
2.76186e-08
2.90309e-08
2.72853e-08
2.92951e-08
2.68542e-08
2.90387e-08
2.65565e-08
2.85031e-08
2.68046e-08
2.88314e-08
2.71183e-08
2.92001e-08
2.75266e-08
2.93525e-08
2.71e-08
2.85354e-08
2.63943e-08
2.81759e-08
2.58518e-08
2.73458e-08
2.57169e-08
2.74353e-08
2.58461e-08
2.83698e-08
2.48414e-08
2.81396e-08
2.52784e-08
2.89331e-08
1.92865e-08
3.78764e-08
2.92876e-08
2.96017e-08
3.0024e-08
2.90415e-08
2.92253e-08
3.00738e-08
2.93425e-08
2.93351e-08
2.83661e-08
2.92958e-08
2.81127e-08
2.98117e-08
2.88938e-08
3.02412e-08
2.93107e-08
3.03244e-08
2.87898e-08
2.98426e-08
2.91565e-08
2.99837e-08
2.86919e-08
3.03505e-08
2.88723e-08
3.07191e-08
2.90271e-08
3.11954e-08
3.02325e-08
3.14184e-08
3.00574e-08
3.16995e-08
2.90021e-08
3.03042e-08
2.78901e-08
2.89372e-08
2.72406e-08
2.92755e-08
2.67448e-08
2.88392e-08
2.65907e-08
2.85238e-08
2.67e-08
2.90042e-08
2.69955e-08
2.91082e-08
2.74263e-08
2.93054e-08
2.6938e-08
2.8464e-08
2.64e-08
2.80758e-08
2.63104e-08
2.72406e-08
2.53944e-08
2.72855e-08
2.57956e-08
2.86084e-08
2.58581e-08
2.78713e-08
2.53464e-08
2.92296e-08
1.90009e-08
3.7753e-08
2.81441e-08
2.97264e-08
2.96805e-08
3.00329e-08
3.13591e-08
2.98588e-08
3.14995e-08
2.78515e-08
3.02248e-08
2.84166e-08
2.97522e-08
2.7945e-08
2.96456e-08
2.73284e-08
2.95492e-08
2.755e-08
3.00458e-08
2.77866e-08
3.00843e-08
2.80827e-08
3.02802e-08
2.81898e-08
3.06383e-08
2.90171e-08
3.07236e-08
2.93178e-08
3.13395e-08
2.94791e-08
3.14789e-08
2.98813e-08
3.12657e-08
2.92801e-08
3.01435e-08
2.77539e-08
2.9061e-08
2.70433e-08
2.93972e-08
2.67755e-08
2.87934e-08
2.65982e-08
2.8498e-08
2.66045e-08
2.90826e-08
2.69943e-08
2.92444e-08
2.73944e-08
2.95125e-08
2.69144e-08
2.85374e-08
2.61731e-08
2.81942e-08
2.60225e-08
2.70775e-08
2.57274e-08
2.73175e-08
2.55853e-08
2.84929e-08
2.5238e-08
2.76712e-08
2.50269e-08
2.90444e-08
1.91025e-08
3.7724e-08
2.92417e-08
2.96836e-08
3.01328e-08
2.89421e-08
2.95914e-08
3.0119e-08
2.9134e-08
2.96803e-08
2.88551e-08
2.98511e-08
2.80188e-08
3.00679e-08
2.83077e-08
3.02995e-08
2.90519e-08
3.0138e-08
2.89684e-08
3.01792e-08
2.92025e-08
2.98854e-08
2.8949e-08
2.9912e-08
2.89755e-08
3.04846e-08
2.9082e-08
3.07744e-08
2.89641e-08
3.11372e-08
3.01674e-08
3.14979e-08
3.0347e-08
3.09001e-08
2.89706e-08
3.03002e-08
2.80346e-08
2.90318e-08
2.70413e-08
2.94073e-08
2.66219e-08
2.88993e-08
2.64813e-08
2.86204e-08
2.66183e-08
2.91254e-08
2.70079e-08
2.90311e-08
2.73447e-08
2.96515e-08
2.6767e-08
2.85312e-08
2.62204e-08
2.8038e-08
2.65339e-08
2.69943e-08
2.54568e-08
2.70201e-08
2.56992e-08
2.82484e-08
2.60201e-08
2.7618e-08
2.49558e-08
2.86109e-08
1.90181e-08
3.79794e-08
2.81468e-08
2.93618e-08
2.9826e-08
3.04225e-08
3.18705e-08
2.94479e-08
3.09665e-08
2.82735e-08
3.04749e-08
2.85624e-08
2.98669e-08
2.81087e-08
2.99465e-08
2.75889e-08
2.99775e-08
2.77368e-08
2.99821e-08
2.78353e-08
2.99504e-08
2.74747e-08
2.99702e-08
2.83493e-08
3.03105e-08
2.8249e-08
3.03402e-08
2.88053e-08
3.0908e-08
2.94912e-08
3.14385e-08
2.94615e-08
3.15198e-08
3.01158e-08
3.13873e-08
2.91617e-08
3.01528e-08
2.78099e-08
2.90853e-08
2.70519e-08
2.92553e-08
2.68939e-08
2.89625e-08
2.65758e-08
2.86635e-08
2.66095e-08
2.9038e-08
2.68667e-08
2.92533e-08
2.72544e-08
2.97423e-08
2.66819e-08
2.87288e-08
2.60772e-08
2.80534e-08
2.56682e-08
2.68831e-08
2.54541e-08
2.71358e-08
2.56197e-08
2.82152e-08
2.53067e-08
2.74649e-08
2.50019e-08
2.81463e-08
1.88489e-08
3.89904e-08
2.89346e-08
2.96717e-08
3.01555e-08
2.89452e-08
2.98082e-08
2.97738e-08
2.86631e-08
3.00301e-08
2.93641e-08
2.97109e-08
2.78483e-08
2.98188e-08
2.83716e-08
3.03644e-08
2.81728e-08
2.99582e-08
2.87911e-08
2.98417e-08
2.92069e-08
2.96587e-08
2.92057e-08
2.98371e-08
2.8532e-08
3.00595e-08
2.89597e-08
3.04497e-08
2.91608e-08
3.04913e-08
2.92223e-08
3.10574e-08
3.00363e-08
3.13353e-08
3.0134e-08
3.08981e-08
2.90822e-08
3.02032e-08
2.78902e-08
2.91328e-08
2.70621e-08
2.92028e-08
2.66058e-08
2.85984e-08
2.64192e-08
2.85905e-08
2.66683e-08
2.89836e-08
2.68971e-08
2.92941e-08
2.71368e-08
2.97409e-08
2.66271e-08
2.86763e-08
2.60036e-08
2.79433e-08
2.65246e-08
2.68258e-08
2.53818e-08
2.71618e-08
2.56514e-08
2.80894e-08
2.61466e-08
2.74393e-08
2.48674e-08
2.81264e-08
1.86501e-08
3.94813e-08
2.80108e-08
2.9032e-08
2.97116e-08
3.00487e-08
3.21658e-08
2.90816e-08
3.06077e-08
2.87938e-08
3.05267e-08
2.83462e-08
3.00677e-08
2.85409e-08
2.99334e-08
2.82269e-08
2.99304e-08
2.85305e-08
3.02207e-08
2.81362e-08
2.98753e-08
2.76634e-08
3.0077e-08
2.79083e-08
3.01235e-08
2.83527e-08
3.02342e-08
2.84133e-08
3.02317e-08
2.88144e-08
3.07664e-08
2.93527e-08
3.12987e-08
2.96868e-08
3.14194e-08
2.98938e-08
3.11866e-08
2.90901e-08
3.01785e-08
2.77667e-08
2.89789e-08
2.71044e-08
2.91559e-08
2.66904e-08
2.88141e-08
2.64915e-08
2.86346e-08
2.66187e-08
2.88784e-08
2.68295e-08
2.92529e-08
2.69516e-08
2.98705e-08
2.66623e-08
2.88335e-08
2.59934e-08
2.78801e-08
2.59579e-08
2.6729e-08
2.53526e-08
2.71492e-08
2.54951e-08
2.80038e-08
2.5351e-08
2.73327e-08
2.48228e-08
2.82655e-08
1.84205e-08
3.97084e-08
2.89675e-08
2.93774e-08
2.98695e-08
2.93489e-08
3.00721e-08
2.95126e-08
2.85571e-08
3.02533e-08
2.93684e-08
2.92858e-08
2.80159e-08
3.00834e-08
2.82584e-08
3.00403e-08
2.80175e-08
2.98453e-08
2.86579e-08
2.99723e-08
2.89648e-08
2.95786e-08
2.9323e-08
3.01819e-08
2.87794e-08
2.97436e-08
2.86821e-08
3.00669e-08
2.89836e-08
3.04618e-08
2.90629e-08
3.05139e-08
2.91715e-08
3.10606e-08
3.01085e-08
3.14755e-08
3.02152e-08
3.09908e-08
2.91916e-08
3.00907e-08
2.8014e-08
2.91288e-08
2.6841e-08
2.90813e-08
2.66422e-08
2.86424e-08
2.64354e-08
2.87638e-08
2.6658e-08
2.89233e-08
2.68211e-08
2.9524e-08
2.69116e-08
2.99398e-08
2.65459e-08
2.86869e-08
2.59649e-08
2.79906e-08
2.60272e-08
2.66409e-08
2.51298e-08
2.72038e-08
2.54865e-08
2.79213e-08
2.51676e-08
2.7149e-08
2.4607e-08
2.95429e-08
1.87178e-08
3.9583e-08
2.8003e-08
2.89153e-08
2.8951e-08
3.00276e-08
3.15756e-08
2.88806e-08
3.02409e-08
2.86791e-08
3.00174e-08
2.81339e-08
3.02204e-08
2.82689e-08
2.98848e-08
2.85362e-08
2.99633e-08
2.85815e-08
2.98316e-08
2.83212e-08
2.99059e-08
2.85246e-08
2.97593e-08
2.78611e-08
2.98531e-08
2.81523e-08
2.98627e-08
2.82271e-08
3.03214e-08
2.83867e-08
3.02998e-08
2.91003e-08
3.07409e-08
2.96589e-08
3.12333e-08
2.96296e-08
3.13992e-08
2.98994e-08
3.11133e-08
2.90767e-08
3.01361e-08
2.76852e-08
2.90548e-08
2.70247e-08
2.9e-08
2.65832e-08
2.85304e-08
2.63188e-08
2.84269e-08
2.65531e-08
2.90025e-08
2.67637e-08
2.94564e-08
2.68492e-08
2.96642e-08
2.67943e-08
2.85473e-08
2.59147e-08
2.79723e-08
2.59637e-08
2.65022e-08
2.51916e-08
2.70801e-08
2.53766e-08
2.79876e-08
2.54864e-08
2.71537e-08
2.47139e-08
2.9387e-08
1.93884e-08
3.94426e-08
2.89133e-08
2.94155e-08
3.00091e-08
2.93765e-08
3.00168e-08
2.9628e-08
2.85643e-08
3.01323e-08
2.93311e-08
2.93421e-08
2.80881e-08
3.01673e-08
2.81899e-08
3.02737e-08
2.84312e-08
3.00886e-08
2.8664e-08
3.00239e-08
2.88953e-08
2.97809e-08
2.87782e-08
2.94428e-08
2.8979e-08
2.97139e-08
2.91055e-08
2.98162e-08
2.89152e-08
2.98618e-08
2.89412e-08
3.05556e-08
2.89482e-08