/*--------------------------------*- C++ -*----------------------------------*\
| =========                 |                                                 |
| \\      /  F ield         | OpenFOAM: The Open Source CFD Toolbox           |
|  \\    /   O peration     | Version:  2206                                  |
|   \\  /    A nd           | Website:  www.openfoam.com                      |
|    \\/     M anipulation  |                                                 |
\*---------------------------------------------------------------------------*/
FoamFile
{
    version     2.0;
    format      ascii;
    arch        "LSB;label=32;scalar=64";
    class       volScalarField;
    location    "150";
    object      nuTildaMean;
}
// * * * * * * * * * * * * * * * * * * * * * * * * * * * * * * * * * * * * * //

dimensions      [0 2 -1 0 0 0 0];

internalField   nonuniform List<scalar> 
93840
(
4.06936e-07
3.81152e-07
4.14187e-07
4.03296e-07
3.6489e-07
4.08148e-07
3.94341e-07
4.09999e-07
3.76934e-07
4.05283e-07
4.00463e-07
3.87943e-07
4.0741e-07
3.73891e-07
4.15057e-07
3.94167e-07
4.02616e-07
3.91107e-07
4.10538e-07
3.55703e-07
4.02062e-07
4.00237e-07
3.96901e-07
4.02847e-07
3.93036e-07
4.15362e-07
3.7759e-07
4.29405e-07
3.96613e-07
3.99083e-07
3.95913e-07
3.98523e-07
3.93913e-07
4.12143e-07
3.58991e-07
4.0671e-07
3.99613e-07
3.96978e-07
3.99049e-07
3.98696e-07
3.9914e-07
3.9563e-07
4.06746e-07
3.64048e-07
4.29876e-07
3.96907e-07
3.99836e-07
3.97411e-07
3.98728e-07
3.97765e-07
3.98661e-07
3.91504e-07
4.06649e-07
3.55213e-07
4.153e-07
3.99437e-07
3.97222e-07
3.99564e-07
3.96137e-07
3.99921e-07
3.9855e-07
3.99013e-07
3.96045e-07
4.06261e-07
3.66834e-07
4.31281e-07
3.96053e-07
3.99513e-07
3.96876e-07
4.01243e-07
3.98191e-07
3.98771e-07
3.9771e-07
4.00183e-07
3.92653e-07
4.0202e-07
3.65587e-07
4.19813e-07
3.99354e-07
3.97372e-07
3.99557e-07
3.97507e-07
3.9882e-07
3.9863e-07
4.00019e-07
3.95075e-07
4.01072e-07
3.94869e-07
3.99294e-07
3.66512e-07
4.23337e-07
3.97942e-07
3.98388e-07
3.96856e-07
3.98204e-07
3.97707e-07
3.98432e-07
3.98241e-07
4.02386e-07
3.98298e-07
4.02164e-07
3.97221e-07
4.02719e-07
3.63703e-07
4.20694e-07
3.98102e-07
3.98198e-07
3.99494e-07
3.98271e-07
3.98271e-07
3.98254e-07
3.98502e-07
3.96955e-07
3.98551e-07
3.96343e-07
3.99086e-07
3.9561e-07
4.06492e-07
3.66025e-07
4.24613e-07
3.98095e-07
3.98282e-07
3.97508e-07
3.98287e-07
3.98179e-07
3.98385e-07
3.98487e-07
3.98938e-07
3.9777e-07
3.99951e-07
3.98224e-07
4.01285e-07
3.9294e-07
4.04446e-07
3.65378e-07
4.22739e-07
3.98174e-07
3.98183e-07
3.99585e-07
3.98361e-07
3.98553e-07
3.98294e-07
3.98392e-07
3.98296e-07
3.99771e-07
3.97404e-07
3.99507e-07
3.97299e-07
4.00057e-07
3.94152e-07
4.02788e-07
3.64394e-07
4.23482e-07
3.98062e-07
3.98379e-07
3.96396e-07
3.98463e-07
3.97422e-07
3.98308e-07
3.98367e-07
3.98404e-07
3.97307e-07
3.99552e-07
3.9749e-07
3.9953e-07
3.97568e-07
4.01966e-07
3.95704e-07
4.03956e-07
3.64814e-07
4.21995e-07
3.98115e-07
3.98213e-07
3.99259e-07
3.97352e-07
3.99124e-07
3.98229e-07
3.9859e-07
3.97621e-07
3.99512e-07
3.97933e-07
3.99416e-07
3.97768e-07
3.9946e-07
3.96536e-07
3.99127e-07
3.94406e-07
4.06341e-07
3.64985e-07
4.2342e-07
3.98222e-07
3.98217e-07
3.97638e-07
3.99544e-07
3.97991e-07
3.98279e-07
3.98319e-07
3.99429e-07
3.97672e-07
3.98888e-07
3.97849e-07
3.98828e-07
3.97223e-07
3.99768e-07
3.97854e-07
4.0162e-07
3.9303e-07
4.05273e-07
3.66353e-07
4.21523e-07
3.98273e-07
3.98244e-07
3.98657e-07
3.97817e-07
3.98706e-07
3.98279e-07
3.98366e-07
3.97671e-07
3.99505e-07
3.98337e-07
3.99056e-07
3.97351e-07
3.99776e-07
3.98888e-07
3.99877e-07
3.97182e-07
3.9987e-07
3.9619e-07
4.0393e-07
3.6698e-07
4.22116e-07
3.98102e-07
3.9831e-07
3.97817e-07
3.98378e-07
3.97601e-07
3.98228e-07
3.98375e-07
3.98662e-07
3.97709e-07
3.98409e-07
3.98171e-07
3.99912e-07
3.97106e-07
3.99031e-07
3.96617e-07
3.99465e-07
3.98012e-07
4.01539e-07
3.9361e-07
4.0393e-07
3.66107e-07
4.20668e-07
3.9838e-07
3.98178e-07
3.98304e-07
3.98052e-07
3.98485e-07
3.98257e-07
3.98433e-07
3.97879e-07
3.99261e-07
3.97448e-07
3.99033e-07
3.97435e-07
4.00545e-07
3.98579e-07
3.99413e-07
3.97904e-07
3.98944e-07
3.9607e-07
3.99222e-07
3.96346e-07
4.04541e-07
3.66283e-07
4.22732e-07
3.97937e-07
3.98276e-07
3.98183e-07
3.98835e-07
3.98009e-07
3.98225e-07
3.98342e-07
3.9945e-07
3.95583e-07
3.99127e-07
3.97894e-07
3.99237e-07
3.96666e-07
3.98504e-07
3.97395e-07
4.00068e-07
3.97121e-07
4.0046e-07
3.98302e-07
4.01749e-07
3.93484e-07
4.05374e-07
3.65434e-07
4.21495e-07
3.98163e-07
3.9821e-07
3.98338e-07
3.97291e-07
3.9841e-07
3.98291e-07
3.98289e-07
3.97979e-07
4.01785e-07
3.98051e-07
3.99378e-07
3.97743e-07
3.99693e-07
3.97923e-07
3.99799e-07
3.97787e-07
3.99922e-07
3.97117e-07
3.99717e-07
3.96236e-07
4.00184e-07
3.95588e-07
4.0525e-07
3.66683e-07
4.2319e-07
3.98042e-07
3.98327e-07
3.9816e-07
3.98554e-07
3.97919e-07
3.98384e-07
3.98252e-07
3.98416e-07
3.9632e-07
3.99108e-07
3.97086e-07
3.98688e-07
3.97441e-07
4.0012e-07
3.96484e-07
3.99525e-07
3.97245e-07
3.9989e-07
3.97106e-07
4.00178e-07
3.97452e-07
4.00615e-07
3.93088e-07
4.04518e-07
3.68422e-07
4.2197e-07
3.98286e-07
3.98214e-07
3.98357e-07
3.97719e-07
3.98424e-07
3.98213e-07
3.9824e-07
3.98334e-07
3.98559e-07
3.98122e-07
3.99133e-07
3.98157e-07
3.99682e-07
3.96819e-07
4.00214e-07
3.98104e-07
3.99157e-07
3.96696e-07
4.00197e-07
3.97824e-07
3.99975e-07
3.96371e-07
4.00643e-07
3.95557e-07
4.01313e-07
3.67414e-07
4.23211e-07
3.98023e-07
3.98262e-07
3.98238e-07
3.98827e-07
3.98262e-07
3.98546e-07
3.98266e-07
3.98652e-07
3.98085e-07
3.992e-07
3.97508e-07
3.98962e-07
3.97302e-07
3.99429e-07
3.96898e-07
3.98458e-07
3.97561e-07
3.99141e-07
3.97541e-07
3.99152e-07
3.97011e-07
3.9971e-07
3.97413e-07
4.02424e-07
3.9395e-07
4.01377e-07
3.67033e-07
4.20717e-07
3.98181e-07
3.9819e-07
3.98194e-07
3.97933e-07
3.98263e-07
3.97836e-07
3.984e-07
3.97951e-07
3.99237e-07
3.97366e-07
3.99318e-07
3.97655e-07
3.99703e-07
3.97654e-07
3.99666e-07
3.978e-07
3.9937e-07
3.98495e-07
3.996e-07
3.98824e-07
3.99406e-07
3.97792e-07
3.99093e-07
3.96133e-07
4.01394e-07
3.96122e-07
4.02316e-07
3.67433e-07
4.22456e-07
3.98178e-07
3.98195e-07
3.98073e-07
3.98207e-07
3.98244e-07
3.98653e-07
3.98442e-07
3.99365e-07
3.95445e-07
3.99692e-07
3.97083e-07
3.99231e-07
3.97119e-07
3.99058e-07
3.97377e-07
3.99483e-07
3.96725e-07
3.9887e-07
3.97574e-07
3.99367e-07
3.96626e-07
3.99955e-07
3.97795e-07
4.00121e-07
3.97484e-07
4.01459e-07
3.95971e-07
4.03426e-07
3.6625e-07
4.2172e-07
3.98521e-07
3.98134e-07
3.98252e-07
3.98243e-07
3.98308e-07
3.97745e-07
3.98274e-07
3.98036e-07
4.02559e-07
3.97368e-07
3.99648e-07
3.97313e-07
3.99784e-07
3.97898e-07
3.99166e-07
3.97743e-07
4.00538e-07
3.98803e-07
3.99186e-07
3.97602e-07
3.98918e-07
3.98266e-07
3.99149e-07
3.97026e-07
3.99492e-07
3.96783e-07
4.00078e-07
3.95984e-07
4.04643e-07
3.66374e-07
4.22598e-07
3.97688e-07
3.9819e-07
3.97814e-07
3.98232e-07
3.98162e-07
3.99241e-07
3.98343e-07
3.98416e-07
3.96109e-07
3.99096e-07
3.97505e-07
4.00198e-07
3.97033e-07
3.99334e-07
3.96984e-07
3.99922e-07
3.97237e-07
3.98753e-07
3.96986e-07
3.99713e-07
3.97825e-07
3.9993e-07
3.97199e-07
4.00126e-07
3.97598e-07
3.99774e-07
3.98009e-07
4.0037e-07
3.93713e-07
4.04988e-07
3.67918e-07
4.22332e-07
3.98376e-07
3.98131e-07
3.98398e-07
3.98233e-07
3.98232e-07
3.9639e-07
3.98218e-07
3.98323e-07
3.9867e-07
3.97623e-07
3.9901e-07
3.97141e-07
4.00177e-07
3.97421e-07
3.99417e-07
3.97868e-07
3.98962e-07
3.97605e-07
3.99624e-07
3.9823e-07
3.99222e-07
3.98451e-07
3.99044e-07
3.98054e-07
3.9926e-07
3.97702e-07
3.99865e-07
3.97547e-07
4.00357e-07
3.97045e-07
4.02885e-07
3.68078e-07
4.22581e-07
3.9801e-07
3.98353e-07
3.98262e-07
3.9825e-07
3.98195e-07
3.99191e-07
3.98475e-07
3.98536e-07
3.9803e-07
3.99207e-07
3.98065e-07
3.99714e-07
3.96926e-07
3.99404e-07
3.97461e-07
3.99146e-07
3.98005e-07
3.99519e-07
3.97318e-07
3.99114e-07
3.97135e-07
3.9904e-07
3.97211e-07
3.9843e-07
3.97295e-07
3.99219e-07
3.97877e-07
3.98703e-07
3.97056e-07
4.00518e-07
3.94681e-07
4.01812e-07
3.68714e-07
4.20949e-07
3.98271e-07
3.98044e-07
3.98232e-07
3.98222e-07
3.98197e-07
3.98287e-07
3.98198e-07
3.98293e-07
3.98905e-07
3.97493e-07
3.98835e-07
3.97331e-07
4.00253e-07
3.97392e-07
3.99311e-07
3.97514e-07
3.98975e-07
3.98088e-07
3.9921e-07
3.98296e-07
3.9995e-07
3.98365e-07
3.98834e-07
3.98542e-07
3.99642e-07
3.98468e-07
3.99068e-07
3.97783e-07
3.99908e-07
3.97972e-07
3.99974e-07
3.97185e-07
4.02045e-07
3.68958e-07
4.22441e-07
3.97891e-07
3.9847e-07
3.98286e-07
3.98207e-07
3.98206e-07
3.98185e-07
3.98396e-07
3.98497e-07
3.98066e-07
3.99288e-07
3.98036e-07
3.9909e-07
3.96917e-07
3.99449e-07
3.9825e-07
3.9926e-07
3.97852e-07
3.98655e-07
3.97641e-07
3.98924e-07
3.9733e-07
3.98861e-07
3.97386e-07
3.99087e-07
3.97669e-07
3.9877e-07
3.97496e-07
3.9915e-07
3.96698e-07
3.99428e-07
3.97135e-07
4.01019e-07
3.95854e-07
4.02008e-07
3.6742e-07
4.215e-07
3.98316e-07
3.9812e-07
3.98351e-07
3.98204e-07
3.98204e-07
3.98213e-07
3.98281e-07
3.982e-07
3.98676e-07
3.97999e-07
3.99013e-07
3.97294e-07
3.99885e-07
3.97274e-07
3.99462e-07
3.97465e-07
3.9907e-07
3.98433e-07
3.98892e-07
3.98174e-07
3.98794e-07
3.98838e-07
3.99052e-07
3.98047e-07
3.99372e-07
3.97933e-07
3.99041e-07
3.98208e-07
3.99218e-07
3.9849e-07
3.9953e-07
3.96693e-07
4.00862e-07
3.96699e-07
4.03051e-07
3.67918e-07
4.21547e-07
3.98102e-07
3.98254e-07
3.98182e-07
3.98308e-07
3.98245e-07
3.98238e-07
3.98296e-07
3.98446e-07
3.9795e-07
3.98762e-07
3.97811e-07
3.99249e-07
3.97208e-07
3.99441e-07
3.97603e-07
3.99756e-07
3.97378e-07
3.98758e-07
3.97539e-07
3.99157e-07
3.97791e-07
3.9891e-07
3.97337e-07
3.99375e-07
3.97312e-07
3.99148e-07
3.98075e-07
3.98947e-07
3.97491e-07
3.99418e-07
3.96974e-07
4.0029e-07
3.96749e-07
4.00723e-07
3.95116e-07
4.04057e-07
3.68441e-07
4.2075e-07
3.98285e-07
3.98036e-07
3.98365e-07
3.97734e-07
3.98241e-07
3.98237e-07
3.98315e-07
3.98329e-07
3.99358e-07
3.97723e-07
3.99123e-07
3.97995e-07
3.99568e-07
3.9767e-07
3.98904e-07
3.97026e-07
3.99769e-07
3.98102e-07
3.99207e-07
3.98359e-07
3.99298e-07
3.98083e-07
3.98925e-07
3.98085e-07
3.99753e-07
3.97175e-07
3.99084e-07
3.9792e-07
3.98888e-07
3.9847e-07
3.98693e-07
3.97768e-07
3.99437e-07
3.98289e-07
4.0067e-07
3.95482e-07
4.01808e-07
3.69458e-07
4.22039e-07
3.98112e-07
3.98644e-07
3.98178e-07
3.99132e-07
3.98337e-07
3.98278e-07
3.98345e-07
3.98389e-07
3.98107e-07
3.99367e-07
3.97466e-07
3.98698e-07
3.9768e-07
3.99673e-07
3.97448e-07
3.99362e-07
3.97265e-07
3.98969e-07
3.98011e-07
3.98409e-07
3.97973e-07
3.98698e-07
3.98078e-07
3.98859e-07
3.97736e-07
3.99974e-07
3.9776e-07
3.98714e-07
3.982e-07
3.98953e-07
3.9778e-07
3.99231e-07
3.97068e-07
3.99325e-07
3.97268e-07
4.01169e-07
3.96031e-07
4.02464e-07
3.67961e-07
4.22495e-07
3.98277e-07
3.97992e-07
3.98726e-07
3.97755e-07
3.98297e-07
3.9833e-07
3.9832e-07
3.98311e-07
3.9846e-07
3.97819e-07
3.99214e-07
3.98262e-07
3.99427e-07
3.97388e-07
4.00155e-07
3.98013e-07
3.99664e-07
3.97906e-07
3.99932e-07
3.98295e-07
3.98896e-07
3.98134e-07
3.99341e-07
3.97919e-07
3.99201e-07
3.9739e-07
3.9968e-07
3.98574e-07
3.98425e-07
3.98264e-07
3.98176e-07
3.98536e-07
3.99303e-07
3.97737e-07
3.99157e-07
3.9748e-07
4.00534e-07
3.96467e-07
4.02447e-07
3.67547e-07
4.22278e-07
3.98194e-07
3.98321e-07
3.97788e-07
3.98637e-07
3.9834e-07
3.98323e-07
3.98246e-07
3.98313e-07
3.98361e-07
3.98729e-07
3.9754e-07
3.98675e-07
3.97274e-07
3.99346e-07
3.9771e-07
3.98983e-07
3.96593e-07
3.99583e-07
3.97725e-07
3.98492e-07
3.98057e-07
3.98851e-07
3.98105e-07
3.98709e-07
3.97883e-07
3.98918e-07
3.97338e-07
3.98453e-07
3.98489e-07
3.98944e-07
3.9823e-07
3.99366e-07
3.97668e-07
3.99393e-07
3.9791e-07
3.99361e-07
3.97079e-07
4.00994e-07
3.95962e-07
4.03925e-07
3.68241e-07
4.20948e-07
3.98383e-07
3.98211e-07
3.9831e-07
3.97807e-07
3.9826e-07
3.98258e-07
3.98293e-07
3.98416e-07
3.98541e-07
3.98132e-07
3.99512e-07
3.97848e-07
4.00126e-07
3.9745e-07
3.99106e-07
3.97629e-07
4.00533e-07
3.98054e-07
3.99994e-07
3.97026e-07
3.99022e-07
3.98081e-07
3.98925e-07
3.9784e-07
3.99108e-07
3.98051e-07
3.99214e-07
3.98554e-07
3.98265e-07
3.97754e-07
3.98632e-07
3.97913e-07
3.98358e-07
3.98284e-07
3.9887e-07
3.98228e-07
3.99634e-07
3.97272e-07
4.00093e-07
3.96035e-07
4.03499e-07
3.69062e-07
4.21003e-07
3.98079e-07
3.98308e-07
3.98186e-07
3.98669e-07
3.98195e-07
3.98292e-07
3.98305e-07
3.98434e-07
3.98344e-07
3.98775e-07
3.97717e-07
3.9892e-07
3.97199e-07
3.99691e-07
3.97933e-07
3.99287e-07
3.97568e-07
3.98469e-07
3.98149e-07
3.98729e-07
3.9892e-07
3.9881e-07
3.98155e-07
3.98747e-07
3.97996e-07
3.98697e-07
3.98132e-07
3.99062e-07
3.97868e-07
3.99688e-07
3.9853e-07
3.98694e-07
3.98275e-07
3.98771e-07
3.98054e-07
3.98908e-07
3.97767e-07
3.99498e-07
3.97352e-07
3.99893e-07
3.95876e-07
4.03644e-07
3.69532e-07
4.20695e-07
3.98249e-07
3.97935e-07
3.98421e-07
3.97417e-07
3.98206e-07
3.98252e-07
3.98436e-07
3.98004e-07
3.98857e-07
3.97985e-07
3.99057e-07
3.97393e-07
3.99561e-07
3.97476e-07
3.99359e-07
3.98255e-07
3.99976e-07
3.97938e-07
4.00012e-07
3.97843e-07
3.99161e-07
3.97795e-07
3.99424e-07
3.97497e-07
3.99564e-07
3.98033e-07
3.99117e-07
3.9811e-07
3.99267e-07
3.98097e-07
3.9891e-07
3.97787e-07
3.98777e-07
3.98168e-07
3.98817e-07
3.98207e-07
3.98547e-07
3.98077e-07
3.99917e-07
3.9756e-07
4.00176e-07
3.95576e-07
4.03497e-07
3.69673e-07
4.20881e-07
3.9738e-07
3.98526e-07
3.98205e-07
3.99676e-07
3.9828e-07
3.98325e-07
3.98269e-07
3.99196e-07
3.9458e-07
3.99334e-07
3.98169e-07
3.99465e-07
3.97259e-07
3.99009e-07
3.9779e-07
3.98897e-07
3.97849e-07
3.98436e-07
3.97705e-07
3.98531e-07
3.97794e-07
3.98357e-07
3.97853e-07
3.99079e-07
3.97878e-07
3.98686e-07
3.97526e-07
3.98957e-07
3.97381e-07
3.98656e-07
3.98149e-07
3.99171e-07
3.98623e-07
3.98815e-07
3.98448e-07
3.9881e-07
3.982e-07
3.98618e-07
3.97609e-07
3.99948e-07
3.9673e-07
4.01767e-07
3.95825e-07
4.0376e-07
3.70151e-07
4.2112e-07
3.99436e-07
3.97574e-07
3.98228e-07
3.97586e-07
3.98342e-07
3.98297e-07
3.98275e-07
3.98398e-07
4.04041e-07
3.98273e-07
3.98924e-07
3.97115e-07
4.00242e-07
3.97719e-07
3.98958e-07
3.9783e-07
3.99267e-07
3.97752e-07
3.99417e-07
3.97969e-07
3.99499e-07
3.97885e-07
3.99071e-07
3.98494e-07
3.99466e-07
3.9779e-07
3.99257e-07
3.9869e-07
3.98708e-07
3.99178e-07
3.98541e-07
3.98234e-07
3.98456e-07
3.97888e-07
3.98674e-07
3.98057e-07
3.98588e-07
3.98353e-07
3.98935e-07
3.97622e-07
3.99689e-07
3.96587e-07
4.00644e-07
3.96282e-07
4.02553e-07
3.70016e-07
4.20706e-07
3.97706e-07
3.99133e-07
3.98132e-07
3.98229e-07
3.98191e-07
3.98318e-07
3.98312e-07
3.98298e-07
3.95435e-07
3.97988e-07
3.97043e-07
3.99664e-07
3.97537e-07
3.99364e-07
3.97158e-07
3.99195e-07
3.97903e-07
3.98999e-07
3.98299e-07
3.9846e-07
3.98209e-07
3.9879e-07
3.99403e-07
3.98309e-07
3.97675e-07
3.99114e-07
3.97983e-07
3.98705e-07
3.97584e-07
3.99164e-07
3.978e-07
3.9885e-07
3.9811e-07
3.9917e-07
3.98348e-07
3.98795e-07
3.98209e-07
3.98746e-07
3.98207e-07
3.99124e-07
3.97486e-07
3.9971e-07
3.97483e-07
3.99836e-07
3.95829e-07
4.01592e-07
3.70965e-07
4.20344e-07
3.98235e-07
3.97926e-07
3.98959e-07
3.98241e-07
3.98329e-07
3.98281e-07
3.98303e-07
3.98338e-07
3.98363e-07
3.98299e-07
3.99717e-07
3.97983e-07
3.99116e-07
3.98123e-07
4.00492e-07
3.97633e-07
3.99592e-07
3.97797e-07
3.99395e-07
3.98384e-07
3.99832e-07
3.98207e-07
3.98436e-07
3.97754e-07
3.98904e-07
3.98365e-07
3.99256e-07
3.98373e-07
3.98554e-07
3.99195e-07
3.9831e-07
3.98306e-07
3.99062e-07
3.98082e-07
3.98722e-07
3.97755e-07
3.9872e-07
3.98226e-07
3.98705e-07
3.97885e-07
3.98989e-07
3.97496e-07
3.99625e-07
3.9761e-07
4.00407e-07
3.9707e-07
4.01748e-07
3.69086e-07
4.21413e-07
3.97531e-07
3.9849e-07
3.97448e-07
3.98236e-07
3.98234e-07
3.98235e-07
3.98325e-07
3.98335e-07
3.98224e-07
3.98929e-07
3.97555e-07
3.98892e-07
3.97556e-07
3.9862e-07
3.97317e-07
3.98785e-07
3.98081e-07
3.98408e-07
3.9845e-07
3.98387e-07
3.98366e-07
3.98111e-07
3.98356e-07
3.98612e-07
3.98432e-07
3.98192e-07
3.97983e-07
3.9895e-07
3.97576e-07
3.98659e-07
3.97909e-07
3.98556e-07
3.98039e-07
3.99275e-07
3.98115e-07
3.98953e-07
3.98353e-07
3.98837e-07
3.98236e-07
3.98936e-07
3.98173e-07
3.99097e-07
3.97486e-07
3.99155e-07
3.96633e-07
4.00324e-07
3.96488e-07
4.03881e-07
3.68833e-07
4.21135e-07
3.9942e-07
3.97999e-07
3.98596e-07
3.98282e-07
3.98278e-07
3.98303e-07
3.98252e-07
3.98332e-07
3.98713e-07
3.98048e-07
3.98973e-07
3.98081e-07
3.99532e-07
3.98015e-07
3.99553e-07
3.9798e-07
3.99204e-07
3.9808e-07
3.9912e-07
3.98027e-07
3.99661e-07
3.98382e-07
3.98917e-07
3.98823e-07
3.99134e-07
3.98444e-07
3.99025e-07
3.98e-07
3.99182e-07
3.98526e-07
3.98907e-07
3.98235e-07
3.98942e-07
3.98117e-07
3.98234e-07
3.98131e-07
3.98369e-07
3.9803e-07
3.98706e-07
3.98255e-07
3.98596e-07
3.98364e-07
3.99099e-07
3.97719e-07
3.99944e-07
3.97229e-07
3.99847e-07
3.95745e-07
4.03262e-07
3.68403e-07
4.21283e-07
3.97348e-07
3.98642e-07
3.98133e-07
3.98335e-07
3.98269e-07
3.98276e-07
3.98313e-07
3.98322e-07
3.9826e-07
3.99264e-07
3.97728e-07
3.99083e-07
3.97469e-07
3.99886e-07
3.96977e-07
3.98806e-07
3.98472e-07
3.9872e-07
3.98646e-07
3.98576e-07
3.99421e-07
3.98291e-07
3.98758e-07
3.98587e-07
3.97577e-07
3.98083e-07
3.98289e-07
3.98509e-07
3.97795e-07
3.98769e-07
3.9842e-07
3.98624e-07
3.98042e-07
3.98975e-07
3.97587e-07
3.9931e-07
3.98561e-07
3.98882e-07
3.98482e-07
3.98806e-07
3.98183e-07
3.9884e-07
3.98003e-07
3.99296e-07
3.9782e-07
3.9987e-07
3.97705e-07
4.00185e-07
3.96032e-07
4.0449e-07
3.69309e-07
4.19877e-07
3.98829e-07
3.97609e-07
3.98375e-07
3.98077e-07
3.98268e-07
3.98247e-07
3.98237e-07
3.98259e-07
3.98359e-07
3.97926e-07
3.98857e-07
3.98292e-07
3.99539e-07
3.97779e-07
3.99589e-07
3.97766e-07
3.99007e-07
3.98158e-07
3.99664e-07
3.97468e-07
3.98812e-07
3.97465e-07
3.99008e-07
3.98377e-07
3.98985e-07
3.99128e-07
3.99033e-07
3.98424e-07
3.98747e-07
3.98559e-07
3.98283e-07
3.9811e-07
3.98509e-07
3.98871e-07
3.98525e-07
3.98389e-07
3.98558e-07
3.98364e-07
3.98827e-07
3.97948e-07
3.98844e-07
3.98302e-07
3.98791e-07
3.97872e-07
3.98516e-07
3.97669e-07
3.9921e-07
3.97392e-07
3.99762e-07
3.95863e-07
4.03861e-07
3.70625e-07
4.20569e-07
3.97425e-07
3.9921e-07
3.97375e-07
3.9833e-07
3.9825e-07
3.98234e-07
3.98253e-07
3.98354e-07
3.98192e-07
3.98538e-07
3.98072e-07
3.98555e-07
3.97551e-07
3.993e-07
3.97689e-07
3.99667e-07
3.97846e-07
3.98469e-07
3.97528e-07
3.99566e-07
3.97682e-07
3.98869e-07
3.98809e-07
3.98891e-07
3.9804e-07
3.98505e-07
3.97918e-07
3.98525e-07
3.98262e-07
3.98893e-07
3.98074e-07
3.99148e-07
3.98444e-07
3.99108e-07
3.97239e-07
3.9951e-07
3.98347e-07
3.98375e-07
3.98321e-07
3.98767e-07
3.98109e-07
3.98579e-07
3.98073e-07
3.98784e-07
3.98131e-07
3.98903e-07
3.97579e-07
3.99998e-07
3.96816e-07
3.99807e-07
3.95647e-07
4.03244e-07
3.6976e-07
4.2076e-07
3.99303e-07
3.97814e-07
3.99869e-07
3.98251e-07
3.9821e-07
3.98239e-07
3.98329e-07
3.98262e-07
3.98476e-07
3.98377e-07
3.98616e-07
3.98154e-07
3.99445e-07
3.98018e-07
3.98939e-07
3.97987e-07
3.99812e-07
3.97926e-07
4.00364e-07
3.98102e-07
3.99611e-07
3.9839e-07
3.98635e-07
3.98218e-07
3.993e-07
3.98577e-07
3.98773e-07
3.98541e-07
3.9903e-07
3.97948e-07
3.98526e-07
3.98098e-07
3.98634e-07
3.98423e-07
3.98521e-07
3.98893e-07
3.98761e-07
3.97882e-07
3.9903e-07
3.98334e-07
3.98778e-07
3.98369e-07
3.98789e-07
3.98135e-07
3.98837e-07
3.98198e-07
3.9893e-07
3.97149e-07
4.0011e-07
3.96416e-07
4.00353e-07
3.96906e-07
4.02109e-07
3.69932e-07
4.20097e-07
3.97284e-07
3.98701e-07
3.97581e-07
3.98452e-07
3.98213e-07
3.98252e-07
3.98294e-07
3.98517e-07
3.98112e-07
3.98784e-07
3.97966e-07
3.99176e-07
3.97957e-07
3.98849e-07
3.97858e-07
3.99146e-07
3.97385e-07
3.99033e-07
3.97995e-07
3.98278e-07
3.97818e-07
3.98189e-07
3.98798e-07
3.98693e-07
3.98266e-07
3.98578e-07
3.98056e-07
3.98758e-07
3.98386e-07
3.98558e-07
3.98299e-07
3.98813e-07
3.98335e-07
3.98516e-07
3.98204e-07
3.98684e-07
3.97696e-07
3.98724e-07
3.98532e-07
3.98337e-07
3.97817e-07
3.99038e-07
3.97977e-07
3.98677e-07
3.98198e-07
3.99085e-07
3.98092e-07
3.99057e-07
3.97433e-07
4.00094e-07
3.97567e-07
3.99726e-07
3.96668e-07
4.02804e-07
3.71014e-07
4.19727e-07
3.98936e-07
3.96532e-07
3.98437e-07
3.97669e-07
3.98258e-07
3.98278e-07
3.98323e-07
3.98299e-07
3.98657e-07
3.98074e-07
3.99193e-07
3.97924e-07
3.98644e-07
3.97999e-07
3.98931e-07
3.98145e-07
3.99424e-07
3.98757e-07
3.99085e-07
3.98528e-07
3.99148e-07
3.98564e-07
3.99002e-07
3.97906e-07
3.99067e-07
3.98438e-07
3.9897e-07
3.98634e-07
3.98558e-07
3.98054e-07
3.99063e-07
3.98217e-07
3.98666e-07
3.97952e-07
3.98932e-07
3.98384e-07
3.98466e-07
3.98413e-07
3.98795e-07
3.98255e-07
3.98898e-07
3.98289e-07
3.98817e-07
3.97918e-07
3.98702e-07
3.98465e-07
3.98798e-07
3.97813e-07
3.99074e-07
3.97363e-07
3.99927e-07
3.97572e-07
3.99643e-07
3.96201e-07
4.01808e-07
3.71556e-07
4.20773e-07
3.97634e-07
4.00977e-07
3.9628e-07
3.98584e-07
3.9829e-07
3.98288e-07
3.98301e-07
3.9837e-07
3.98255e-07
3.99212e-07
3.97723e-07
3.99493e-07
3.98247e-07
3.99054e-07
3.98522e-07
3.99311e-07
3.97376e-07
3.99536e-07
3.97619e-07
3.98159e-07
3.98758e-07
3.98542e-07
3.98234e-07
3.98712e-07
3.98292e-07
3.98795e-07
3.98231e-07
3.98938e-07
3.98277e-07
3.98493e-07
3.98529e-07
3.98449e-07
3.98332e-07
3.98999e-07
3.98311e-07
3.98635e-07
3.98443e-07
3.98817e-07
3.98259e-07
3.98539e-07
3.98323e-07
3.98654e-07
3.98194e-07
3.98922e-07
3.97986e-07
3.98843e-07
3.9787e-07
3.99355e-07
3.98322e-07
3.99126e-07
3.97617e-07
3.99584e-07
3.97719e-07
4.00693e-07
3.96779e-07
4.02382e-07
3.70644e-07
4.20668e-07
3.9863e-07
3.96986e-07
4.01195e-07
3.98394e-07
3.98286e-07
3.98244e-07
3.983e-07
3.98277e-07
3.98282e-07
3.9818e-07
3.99143e-07
3.97346e-07
3.99125e-07
3.97449e-07
3.99243e-07
3.97556e-07
3.9957e-07
3.97941e-07
3.98624e-07
3.98898e-07
3.9989e-07
3.97758e-07
4.00024e-07
3.97519e-07
3.9891e-07
3.98401e-07
3.99126e-07
3.9813e-07
3.98947e-07
3.98138e-07
3.98682e-07
3.98267e-07
3.98929e-07
3.98117e-07
3.98856e-07
3.98081e-07
3.98636e-07
3.98144e-07
3.98658e-07
3.98346e-07
3.98811e-07
3.98398e-07
3.98716e-07
3.98203e-07
3.98897e-07
3.98018e-07
3.98741e-07
3.97796e-07
3.98526e-07
3.97969e-07
3.98672e-07
3.97622e-07
3.99513e-07
3.97175e-07
4.00534e-07
3.96362e-07
4.01732e-07
3.70078e-07
4.20734e-07
3.97435e-07
3.98801e-07
3.97352e-07
3.98281e-07
3.98259e-07
3.9825e-07
3.98256e-07
3.98245e-07
3.9825e-07
3.98711e-07
3.97658e-07
3.99752e-07
3.97972e-07
3.99908e-07
3.9805e-07
3.99213e-07
3.98146e-07
3.98948e-07
3.98785e-07
3.98991e-07
3.98353e-07
3.98597e-07
3.97911e-07
3.98576e-07
3.98452e-07
3.98224e-07
3.98376e-07
3.98532e-07
3.98251e-07
3.98985e-07
3.98746e-07
3.98716e-07
3.98391e-07
3.99058e-07
3.98081e-07
3.98681e-07
3.98171e-07
3.98641e-07
3.98281e-07
3.98813e-07
3.98201e-07
3.98579e-07
3.98283e-07
3.98605e-07
3.98054e-07
3.98914e-07
3.98119e-07
3.98643e-07
3.98375e-07
3.99093e-07
3.98172e-07
3.99567e-07
3.97576e-07
3.99548e-07
3.97174e-07
4.01152e-07
3.95831e-07
4.03082e-07
3.70503e-07
4.21207e-07
3.99041e-07
3.979e-07
3.98293e-07
3.982e-07
3.98304e-07
3.98231e-07
3.98248e-07
3.98257e-07
3.98529e-07
3.9835e-07
3.99546e-07
3.97401e-07
3.99611e-07
3.97025e-07
4.00082e-07
3.97453e-07
3.99045e-07
3.98242e-07
3.99099e-07
3.9729e-07
3.99258e-07
3.97923e-07
3.99457e-07
3.9767e-07
3.99367e-07
3.98226e-07
3.99343e-07
3.98308e-07
3.98667e-07
3.9827e-07
3.98675e-07
3.97908e-07
3.98568e-07
3.98168e-07
3.98739e-07
3.98209e-07
3.98691e-07
3.98234e-07
3.98615e-07
3.98226e-07
3.98518e-07
3.98435e-07
3.98587e-07
3.98455e-07
3.989e-07
3.98341e-07
3.98744e-07
3.98453e-07
3.98702e-07
3.98037e-07
3.98729e-07
3.97769e-07
3.99153e-07
3.97657e-07
3.99172e-07
3.96441e-07
4.01076e-07
3.96174e-07
4.01483e-07
3.6989e-07
4.21122e-07
3.97632e-07
3.9875e-07
3.98181e-07
3.98527e-07
3.98267e-07
3.98235e-07
3.98237e-07
3.98261e-07
3.98128e-07
3.98638e-07
3.97751e-07
3.99478e-07
3.98404e-07
3.99876e-07
3.9803e-07
3.99708e-07
3.98109e-07
3.98911e-07
3.98682e-07
3.99251e-07
3.98083e-07
3.98958e-07
3.97975e-07
3.98481e-07
3.98576e-07
3.98389e-07
3.98115e-07
3.98536e-07
3.98242e-07
3.98996e-07
3.98131e-07
3.9908e-07
3.98173e-07
3.98774e-07
3.986e-07
3.98681e-07
3.98118e-07
3.98503e-07
3.98328e-07
3.98818e-07
3.98284e-07
3.98747e-07
3.98054e-07
3.98699e-07
3.98257e-07
3.98635e-07
3.98048e-07
3.98406e-07
3.9835e-07
3.98495e-07
3.98056e-07
3.98882e-07
3.97903e-07
3.99155e-07
3.97855e-07
4.00116e-07
3.96658e-07
4.0051e-07
3.96644e-07
4.03112e-07
3.6899e-07
4.21007e-07
3.98697e-07
3.98024e-07
3.98887e-07
3.98107e-07
3.98297e-07
3.98208e-07
3.98226e-07
3.9827e-07
3.98376e-07
3.984e-07
3.99125e-07
3.97435e-07
3.98848e-07
3.96836e-07
3.98279e-07
3.97332e-07
3.99988e-07
3.97882e-07
3.98602e-07
3.97574e-07
3.99414e-07
3.98364e-07
3.99182e-07
3.98973e-07
3.98701e-07
3.98914e-07
3.98646e-07
3.9897e-07
3.98963e-07
3.9835e-07
3.99162e-07
3.98503e-07
3.98715e-07
3.98089e-07
3.98783e-07
3.97941e-07
3.98976e-07
3.98534e-07
3.98771e-07
3.98132e-07
3.98661e-07
3.98146e-07
3.98786e-07
3.98057e-07
3.98854e-07
3.98324e-07
3.98763e-07
3.9831e-07
3.98952e-07
3.98075e-07
3.99049e-07
3.97989e-07
3.98757e-07
3.97994e-07
3.99253e-07
3.97484e-07
3.99956e-07
3.97639e-07
4.00222e-07
3.95537e-07
4.03072e-07
3.70126e-07
4.21093e-07
3.97864e-07
3.984e-07
3.97439e-07
3.9833e-07
3.98266e-07
3.98352e-07
3.98239e-07
3.98228e-07
3.98307e-07
3.9846e-07
3.97849e-07
3.99693e-07
3.97821e-07
4.00597e-07
3.98506e-07
3.99927e-07
3.97917e-07
3.9977e-07
3.99658e-07
3.98927e-07
3.98772e-07
3.98315e-07
3.9815e-07
3.99121e-07
3.98787e-07
3.9854e-07
3.97647e-07
3.98589e-07
3.98086e-07
3.98668e-07
3.98214e-07
3.97867e-07
3.98261e-07
3.98884e-07
3.98641e-07
3.98637e-07
3.9805e-07
3.98754e-07
3.97964e-07
3.98759e-07
3.98062e-07
3.98683e-07
3.98198e-07
3.98836e-07
3.98323e-07
3.98534e-07
3.98332e-07
3.98649e-07
3.98132e-07
3.98688e-07
3.98247e-07
3.98583e-07
3.98035e-07
3.98806e-07
3.98078e-07
3.98707e-07
3.97971e-07
3.99241e-07
3.97637e-07
4.00453e-07
3.95826e-07
4.02207e-07
3.70614e-07
4.20375e-07
3.98437e-07
3.9791e-07
3.99053e-07
3.98337e-07
3.98401e-07
3.9808e-07
3.98218e-07
3.98268e-07
3.98298e-07
3.98388e-07
3.99285e-07
3.97933e-07
3.99524e-07
3.96953e-07
3.99199e-07
3.9693e-07
3.99252e-07
3.97221e-07
3.99469e-07
3.95893e-07
3.98728e-07
3.98156e-07
3.99114e-07
3.98282e-07
3.98881e-07
3.9797e-07
3.99532e-07
3.9848e-07
3.99009e-07
3.98208e-07
3.99038e-07
3.98734e-07
3.99206e-07
3.98548e-07
3.98493e-07
3.98174e-07
3.99017e-07
3.98139e-07
3.98804e-07
3.98662e-07
3.98844e-07
3.98411e-07
3.98574e-07
3.97985e-07
3.98701e-07
3.98028e-07
3.98739e-07
3.98224e-07
3.98799e-07
3.98135e-07
3.98716e-07
3.97888e-07
3.98962e-07
3.98136e-07
3.98671e-07
3.98283e-07
3.98723e-07
3.98054e-07
3.9923e-07
3.9743e-07
4.0026e-07
3.96434e-07
4.0137e-07
3.70455e-07
4.20523e-07
3.97812e-07
3.98713e-07
3.97705e-07
3.98395e-07
3.97551e-07
3.98321e-07
3.98287e-07
3.98277e-07
3.98282e-07
3.98591e-07
3.98064e-07
3.98613e-07
3.98238e-07
3.99365e-07
3.97598e-07
3.99621e-07
3.98251e-07
3.99205e-07
3.99631e-07
3.98808e-07
3.99281e-07
3.98744e-07
3.98485e-07
3.98831e-07
3.9814e-07
3.98818e-07
3.98581e-07
3.97881e-07
3.98479e-07
3.98434e-07
3.98456e-07
3.98415e-07
3.98187e-07
3.98197e-07
3.98319e-07
3.98904e-07
3.98533e-07
3.98536e-07
3.98141e-07
3.98529e-07
3.978e-07
3.98603e-07
3.98219e-07
3.98675e-07
3.9826e-07
3.98906e-07
3.98264e-07
3.98709e-07
3.98228e-07
3.98846e-07
3.98208e-07
3.98591e-07
3.97871e-07
3.98866e-07
3.98117e-07
3.98791e-07
3.98123e-07
3.99062e-07
3.98006e-07
3.99046e-07
3.98198e-07
4.00425e-07
3.96317e-07
4.02056e-07
3.70443e-07
4.19619e-07
3.98572e-07
3.97599e-07
3.98427e-07
3.97408e-07
3.99136e-07
3.9832e-07
3.98245e-07
3.98264e-07
3.98281e-07
3.98253e-07
3.99224e-07
3.97744e-07
3.99101e-07
3.97936e-07
3.99599e-07
3.98153e-07
3.99935e-07
3.97784e-07
3.99781e-07
3.96652e-07
4.0059e-07
3.97134e-07
3.99478e-07
3.9811e-07
3.98795e-07
3.98429e-07
3.98699e-07
3.98236e-07
3.9964e-07
3.98722e-07
3.98987e-07
3.98282e-07
3.98997e-07
3.98042e-07
3.98793e-07
3.98239e-07
3.98513e-07
3.98263e-07
3.98551e-07
3.98645e-07
3.98754e-07
3.98377e-07
3.98805e-07
3.98308e-07
3.98842e-07
3.97814e-07
3.98637e-07
3.98192e-07
3.98499e-07
3.97984e-07
3.98928e-07
3.981e-07
3.9887e-07
3.9799e-07
3.98732e-07
3.98116e-07
3.98912e-07
3.97624e-07
3.98885e-07
3.98028e-07
3.98796e-07
3.97595e-07
4.00239e-07
3.96661e-07
4.01739e-07
3.7106e-07
4.20583e-07
3.97892e-07
3.98743e-07
3.98264e-07
3.99599e-07
3.98208e-07
3.98227e-07
3.98288e-07
3.98246e-07
3.983e-07
3.98621e-07
3.97754e-07
3.99661e-07
3.98121e-07
3.99025e-07
3.97824e-07
3.98937e-07
3.97688e-07
3.99005e-07
3.98369e-07
3.9912e-07
3.9865e-07
3.99915e-07
3.98305e-07
3.98425e-07
3.98572e-07
3.98822e-07
3.97952e-07
3.99265e-07
3.98148e-07
3.98077e-07
3.97497e-07
3.98645e-07
3.98386e-07
3.98545e-07
3.98543e-07
3.98476e-07
3.98676e-07
3.98475e-07
3.98318e-07
3.98643e-07
3.97836e-07
3.9871e-07
3.98025e-07
3.98509e-07
3.98046e-07
3.99375e-07
3.98234e-07
3.98568e-07
3.98285e-07
3.98894e-07
3.98052e-07
3.9887e-07
3.98069e-07
3.98751e-07
3.98134e-07
3.9877e-07
3.98079e-07
3.99169e-07
3.97812e-07
3.9922e-07
3.98285e-07
3.98807e-07
3.97342e-07
3.99772e-07
3.96186e-07
4.03524e-07
3.70915e-07
4.20586e-07
3.98531e-07
3.97725e-07
3.98202e-07
3.97832e-07
3.98242e-07
3.98277e-07
3.98245e-07
3.98233e-07
3.98255e-07
3.98342e-07
3.99298e-07
3.97121e-07
3.98661e-07
3.9774e-07
3.98939e-07
3.97796e-07
3.99563e-07
3.982e-07
3.9875e-07
3.97598e-07
4.00038e-07
3.9735e-07
3.99053e-07
3.9801e-07
3.98735e-07
3.98072e-07
3.99383e-07
3.98604e-07
3.98921e-07
3.984e-07
3.9924e-07
3.99068e-07
3.98628e-07
3.98614e-07
3.98729e-07
3.98158e-07
3.98825e-07
3.98529e-07
3.98524e-07
3.98233e-07
3.98692e-07
3.98496e-07
3.98649e-07
3.9818e-07
3.9866e-07
3.9789e-07
3.98677e-07
3.98135e-07
3.98748e-07
3.98222e-07
3.98852e-07
3.97935e-07
3.98671e-07
3.9829e-07
3.98507e-07
3.98288e-07
3.98762e-07
3.98065e-07
3.99012e-07
3.97819e-07
3.9861e-07
3.98038e-07
3.99325e-07
3.97644e-07
4.00008e-07
3.96941e-07
4.01395e-07
3.71507e-07
4.20728e-07
3.97789e-07
3.99413e-07
3.98347e-07
3.98347e-07
3.98316e-07
3.98309e-07
3.98287e-07
3.98257e-07
3.98316e-07
3.98387e-07
3.98162e-07
3.99844e-07
3.97837e-07
4.01002e-07
3.98089e-07
4.00251e-07
3.98132e-07
3.99692e-07
3.98882e-07
3.98826e-07
3.98372e-07
3.98502e-07
3.98635e-07
3.98697e-07
3.99723e-07
3.98706e-07
3.98762e-07
3.98261e-07
3.98057e-07
3.99154e-07
3.97915e-07
3.98381e-07