/*--------------------------------*- C++ -*----------------------------------*\
| =========                 |                                                 |
| \\      /  F ield         | OpenFOAM: The Open Source CFD Toolbox           |
|  \\    /   O peration     | Version:  2206                                  |
|   \\  /    A nd           | Website:  www.openfoam.com                      |
|    \\/     M anipulation  |                                                 |
\*---------------------------------------------------------------------------*/
FoamFile
{
    version     2.0;
    format      ascii;
    arch        "LSB;label=32;scalar=64";
    class       volScalarField;
    location    "150";
    object      p;
}
// * * * * * * * * * * * * * * * * * * * * * * * * * * * * * * * * * * * * * //

dimensions      [1 -1 -2 0 0 0 0];

internalField   nonuniform List<scalar> 
93840
(
1.85404
0.814445
1.63981
1.30662
0.768833
1.41077
0.849661
1.30561
0.891324
1.1652
1.16182
0.789518
1.19528
1.05854
1.08797
1.02595
1.279
0.97897
1.02153
0.985116
0.902549
1.06341
0.838961
1.12078
1.09423
1.08165
1.04954
0.793678
0.991607
1.25382
1.01815
0.980365
0.999742
1.00621
1.07136
0.56214
1.13867
0.854068
1.0778
1.08406
1.06182
1.05186
1.01843
0.986238
0.893423
0.932988
1.23301
1.05103
0.957228
1.03059
1.00396
1.00495
0.975477
0.895376
0.615949
1.12562
0.934766
1.03994
1.06462
1.0413
1.03873
0.999176
0.981479
0.934878
1.11202
0.914008
0.996895
1.18231
1.07878
0.974274
1.01912
1.01148
0.952548
0.973547
0.941377
0.908135
1.05081
0.743346
1.10418
0.953789
1.0149
1.05739
1.04423
1.05162
1.00043
0.99219
0.966247
1.00652
0.937873
1.05439
0.941609
0.997691
1.15977
1.0974
1.00553
1.03823
1.03423
0.944915
0.989924
0.943756
0.967516
0.968941
0.970534
1.03334
0.778705
1.11722
0.97408
1.00155
1.05754
1.04777
1.06047
0.997064
1.00823
0.988231
1.01004
0.969837
1.01404
0.95679
1.03972
0.9435
1.00094
1.13408
1.10864
1.02924
1.05834
1.04403
0.96186
1.00598
0.954722
0.986203
0.962805
0.971982
0.986583
0.985153
1.02535
0.770642
1.07129
0.996386
0.994181
1.06155
1.04638
1.05233
1.00941
0.997653
1.00194
0.999212
0.973313
1.00684
0.973386
1.01634
0.97682
1.01696
0.953158
0.99447
1.11093
1.11539
1.03684
1.07391
1.05137
0.988899
1.00957
0.991352
0.999334
0.974946
0.979345
0.976566
0.98272
0.990549
0.984524
1.00784
0.775943
1.09119
1.02575
0.995447
1.06371
1.04893
1.0486
1.03048
0.989932
1.00737
0.985331
0.995365
1.00576
0.976576
1.00043
0.973565
1.00911
0.969737
1.00692
0.965449
0.91416
1.07649
1.10329
1.03532
1.07459
1.05485
1.00306
1.00661
0.995102
1.00736
0.993833
0.995921
0.978613
0.990481
0.975658
0.972038
0.994625
0.976176
1.01016
0.80059
1.17937
1.05118
0.998675
1.06297
1.05034
1.05349
1.04135
1.0009
1.01607
0.987244
1.00482
0.99475
0.991696
1.00002
0.976413
1.0055
0.965626
1.00602
0.968791
1.00754
0.969996
0.938
1.04508
1.09535
1.03747
1.07031
1.06401
1.01538
1.01319
0.990152
1.01525
0.990621
0.99911
0.992497
0.987911
0.982033
0.993171
0.971502
0.970649
0.99075
0.970119
1.00911
0.812244
1.17399
1.05426
0.994035
1.05819
1.0441
1.05504
1.04445
1.00677
1.00778
0.982405
1.00958
0.98787
1.00502
0.990138
0.992296
1.00227
0.972919
1.00042
0.961298
0.995425
0.977714
1.00523
0.964503
0.979127
1.03376
1.10135
1.03875
1.06342
1.0611
1.02724
1.0351
1.01245
1.01335
0.990075
1.00651
0.994106
0.998338
0.997064
0.989349
0.981129
0.982955
0.979837
0.968893
0.997418
0.972093
1.00637
0.836153
1.14948
1.05235
0.989986
1.05605
1.0394
1.06197
1.04758
1.02125
1.00835
1.0024
1.00773
0.983064
0.998625
0.973791
1.0062
0.992579
0.982613
0.991284
0.966105
0.997856
0.965548
0.991952
0.978089
0.996518
0.868923
1.00318
1.02822
1.10348
1.03627
1.06123
1.05812
1.04444
1.05331
1.03033
1.02261
0.997751
1.01394
0.99485
0.998946
0.988473
0.999826
0.999578
0.98874
0.981257
0.977872
0.975505
0.969336
0.993119
0.9679
0.98726
0.857138
1.12775
1.06089
0.994076
1.05671
1.04035
1.05181
1.04567
1.01899
1.01423
1.00423
1.00545
0.986779
0.998193
0.976448
1.00232
0.970712
1.00249
0.98829
0.978846
0.98195
0.963932
0.996889
0.966894
0.982959
0.968973
1.00641
0.878822
1.01693
1.0239
1.09062
1.03973
1.06054
1.05706
1.04847
1.06441
1.02501
1.03468
1.01422
1.02342
0.985346
1.01015
0.981258
1.00264
0.990971
0.993014
0.990611
0.980174
0.976172
0.975895
0.976992
0.969178
0.989204
0.964938
1.00051
0.878856
1.10969
1.06603
0.992729
1.06219
1.03864
1.0557
1.05989
1.03082
1.03814
1.01705
1.02875
0.999115
1.00913
0.981923
0.999158
0.970926
1.00088
0.970425
0.991208
0.985225
0.983508
0.976582
0.967512
0.994832
0.966676
0.978544
0.959912
0.995978
0.881061
1.02845
1.01649
1.0816
1.04082
1.06026
1.05811
1.05711
1.07372
1.02624
1.05426
1.01016
1.03123
0.99858
1.03056
0.973085
1.02156
0.979714
1.00842
0.991163
0.99282
0.983379
0.988352
0.970886
0.978932
0.980405
0.969599
0.98282
0.959424
0.995821
0.866952
1.09018
1.06363
0.992047
1.06665
1.03953
1.05166
1.06316
1.03394
1.05674
1.01069
1.04355
1.01078
1.02385
0.992678
1.01345
0.97903
1.00662
0.969649
1.00488
0.976607
0.99398
0.978615
0.990425
0.973853
0.973048
0.986351
0.963203
0.980176
0.957048
0.996442
0.874639
1.03368
1.00744
1.07302
1.03653
1.05128
1.05111
1.05098
1.08041
1.02856
1.07375
1.02665
1.04433
1.01645
1.02807
0.988292
1.03551
0.974682
1.03279
0.988097
1.00901
0.984007
0.996161
0.973973
0.994484
0.97718
0.983854
0.979313
0.972107
0.981203
0.949728
0.99956
0.868255
1.07101
1.05438
0.999689
1.07244
1.04599
1.0541
1.06734
1.03696
1.07246
1.017
1.05233
1.01136
1.03738
1.00853
1.02253
0.98723
1.012
0.983991
1.01545
0.972877
1.008
0.972897
1.00251
0.976532
0.99565
0.979361
0.976034
0.98346
0.965061
0.975873
0.957907
0.997997
0.881952
1.03148
0.997528
1.07208
1.03074
1.04632
1.04525
1.04914
1.07556
1.02862
1.07155
1.02078
1.05618
1.02892
1.02648
1.0135
1.0281
0.979377
1.03649
0.978016
1.02844
0.986303
1.01612
0.980729
1.00029
0.972041
0.996142
0.978048
0.984208
0.974899
0.977766
0.980573
0.954837
0.996081
0.886852
1.05551
1.04966
1.01701
1.08009
1.05121
1.05399
1.06556
1.03577
1.07018
1.01983
1.06321
1.01733
1.04692
1.01479
1.01892
1.00479
1.01914
0.9838
1.01215
0.984403
1.02007
0.975659
1.01218
0.978292
1.00863
0.97587
0.999589
0.981201
0.976209
0.977703
0.975201
0.971639
0.961795
1.00079
0.910024
1.02802
0.990498
1.06415
1.02266
1.04039
1.04438
1.04514
1.07325
1.02875
1.07554
1.02535
1.06649
1.02801
1.04372
1.02943
1.02778
1.00682
1.0311
0.981717
1.03755
0.97707
1.02568
0.976104
1.01905
0.974818
1.00646
0.976812
0.995564
0.979504
0.986257
0.973169
0.983524
0.976678
0.963693
0.998442
0.905751
1.04464
1.0462
1.03628
1.08381
1.0529
1.04734
1.07118
1.02653
1.07013
1.0092
1.05833
1.02022
1.05387
1.02409
1.03851
1.01723
1.02415
1.0008
1.02093
0.986998
1.01915
0.986905
1.01965
0.978422
1.01556
0.97626
1.00921
0.972341
1.00171
0.978591
0.981206
0.972728
0.980943
0.970201
0.972266
0.9937
0.917027
1.02601
0.97922
1.05657
1.01362
1.03193
1.04686
1.04334
1.07194
1.02591
1.07999
1.02705
1.06798
1.03032
1.05366
1.03634
1.03774
1.01894
1.02142
1.00697
1.02347
0.979101
1.03684
0.97552
1.01494
0.98276
1.01269
0.974755
1.00807
0.971818
0.995338
0.976764
0.987012
0.967225
0.989714
0.969683
0.975167
0.989993
0.91449
1.03487
1.04991
1.04601
1.08265
1.05216
1.04279
1.07275
1.0299
1.06541
1.0143
1.06079
1.01976
1.05359
1.02946
1.04744
1.02644
1.03165
1.01574
1.0189
0.998503
1.02225
0.991166
1.02379
0.992875
1.0113
0.982147
1.01669
0.970625
1.01116
0.974659
0.998021
0.974805
0.987466
0.96778
0.986512
0.967717
0.982051
0.986876
0.921252
1.02542
0.972781
1.05856
1.01317
1.02937
1.04115
1.04694
1.06447
1.03479
1.07493
1.01962
1.0732
1.03089
1.05317
1.03571
1.03937
1.03679
1.03234
1.013
1.01649
0.998701
1.02938
0.976489
1.02346
0.994142
1.01896
0.985016
1.01342
0.975646
1.00562
0.97461
0.993845
0.973237
0.994423
0.968334
0.995805
0.965938
0.988378
0.98372
0.918507
1.02538
1.04623
1.05275
1.07114
1.0486
1.03989
1.06522
1.03192
1.0694
1.0259
1.06565
1.02331
1.04938
1.02619
1.04811
1.03125
1.03568
1.0211
1.02674
1.00984
1.01755
0.997358
1.02617
0.997865
1.02163
0.988319
1.01398
0.976416
1.01446
0.968719
1.00849
0.975423
1.00043
0.972086
0.993244
0.965186
0.991768
0.962918
0.992265
0.980491
0.927924
1.02814
0.96906
1.05474
1.00438
1.02225
1.03781
1.04923
1.06274
1.02783
1.07697
1.02332
1.0604
1.02735
1.05371
1.03326
1.04504
1.03009
1.03535
1.02494
1.02762
1.00742
1.01526
0.992881
1.02786
0.99293
1.02467
0.989155
1.01705
0.984946
1.01017
0.974699
1.00423
0.971916
0.991507
0.969656
1.00102
0.9627
0.999335
0.959795
0.993924
0.977078
0.9243
1.01547
1.03917
1.05877
1.06689
1.05429
1.03838
1.06562
1.03195
1.06987
1.01643
1.06364
1.029
1.05808
1.02408
1.0495
1.02427
1.04766
1.02677
1.02923
1.02259
1.02383
1.00463
1.01942
0.996127
1.02221
0.999105
1.01988
0.992402
1.01323
0.977403
1.01041
0.973231
1.00665
0.972214
1.00152
0.968868
1.00013
0.961398
0.99625
0.957057
0.991811
0.973685
0.931185
1.03135
0.960203
1.05336
0.993704
1.02468
1.03574
1.0458
1.05706
1.01782
1.06861
1.02438
1.06587
1.03456
1.05476
1.02886
1.05055
1.02545
1.04632
1.02765
1.03277
1.02076
1.02416
1.00361
1.01983
0.991273
1.0238
0.991474
1.02009
0.992783
1.01364
0.980585
1.00828
0.978741
1.00077
0.970828
0.992214
0.96449
1.00878
0.9634
1.00021
0.955507
0.989659
0.969344
0.916895
1.0075
1.04592
1.05883
1.06657
1.05936
1.03848
1.06649
1.02512
1.0655
1.02145
1.06878
1.01799
1.0602
1.02177
1.05101
1.02067
1.04635
1.02164
1.04104
1.02332
1.03
1.01817
1.02386
0.999832
1.01812
0.9947
1.02294
0.997507
1.01703
0.991218
1.01055
0.975694
1.00632
0.973581
1.00251
0.969753
1.00765
0.966761
1.00289
0.96221
0.994045
0.961214
0.986393
0.96422
0.923286
1.03223
0.954887
1.0501
0.992131
1.01785
1.02403
1.04157
1.0518
1.01444
1.07151
1.01356
1.06722
1.0316
1.0608
1.02843
1.04674
1.02793
1.04926
1.02413
1.0425
1.02299
1.03386
1.01736
1.02268
1.00426
1.01921
0.992252
1.02013
0.993761
1.01667
0.992717
1.01014
0.980006
1.00436
0.976581
0.999711
0.966865
0.995395
0.960357
1.0079
0.965147
0.997087
0.961126
0.983224
0.959188
0.914577
0.999743
1.06035
1.06868
1.06374
1.06231
1.03549
1.06869
1.02044
1.06063
1.02597
1.0725
1.01762
1.06734
1.01875
1.06145
1.02094
1.05092
1.02055
1.04684
1.02038
1.03921
1.02191
1.03045
1.01554
1.02031
1.00038
1.01647
0.995065
1.01801
0.997795
1.01448
0.993365
1.00675
0.978143
1.00323
0.973149
1.00293
0.965196
1.00933
0.964503
1.00444
0.962948
0.993076
0.962547
0.981839
0.955499
0.916437
1.03744
0.947694
1.0362
0.981837
1.01562
1.02471
1.0422
1.05167
1.0184
1.06988
1.01733
1.05904
1.03481
1.0696
1.02863
1.06015
1.03069
1.05093
1.02799
1.0454
1.02327
1.03936
1.01645
1.03038
1.01532
1.01879
0.999875
1.01845
0.994417
1.01697
0.994777
1.01142
0.992297
1.00594
0.978229
1.002
0.975
1.00115
0.966414
0.996494
0.962749
1.00492
0.966457
0.997021
0.959178
0.989535
0.953791
0.911106
0.995297
1.07819
1.07564
1.06718
1.06502
1.0305
1.0648
1.01685
1.06947
1.02266
1.06675
1.02154
1.05366
1.02871
1.06341
1.02994
1.0583
1.02217
1.04939
1.01966
1.04581
1.0224
1.03727
1.01966
1.02906
1.01361
1.01806
0.999248
1.01565
0.994946
1.01503
1.0039
1.00871
0.992532
1.00393
0.97791
1.00215
0.970567
1.0011
0.964878
1.00793
0.96766
1.00188
0.964476
0.994279
0.960551
0.996606
0.951794
0.926321
1.03801
0.953359
1.03518
0.981366
1.01813
1.02404
1.0397
1.05729
1.02392
1.08079
1.02622
1.06758
1.0326
1.06813
1.03244
1.05874
1.02915
1.06316
1.03206
1.04574
1.02598
1.04385
1.02079
1.03379
1.02029
1.02757
1.0147
1.01602
0.998513
1.01743
0.997705
1.01265
0.994323
1.00671
0.993196
1.00194
0.978187
0.999866
0.973898
0.999185
0.967444
0.996515
0.966272
1.00232
0.965774
0.993473
0.956802
0.999113
0.95558
0.927755
0.99265
1.07951
1.0703
1.06332
1.06238
1.02698
1.06508
1.01211
1.07189
1.01752
1.07075
1.02293
1.06447
1.02378
1.05817
1.03504
1.05656
1.02361
1.05848
1.02893
1.0429
1.02183
1.04207
1.02058
1.0303
1.01997
1.0251
1.01334
1.0147
0.995551
1.01654
0.99774
1.01199
1.00111
1.00353
0.991337
1.00115
0.976511
0.99928
0.971066
0.997959
0.966146
1.00652
0.970472
1.00006
0.964186
0.991691
0.953886
0.996788
0.959328
0.940797
1.03831
0.965155
1.04052
0.989231
1.01827
1.02258
1.03695
1.06058
1.02646
1.07391
1.03222
1.06699
1.01869
1.07339
1.03734
1.06823
1.03672
1.06864
1.03643
1.05533
1.03495
1.04821
1.02577
1.04153
1.02537
1.03805
1.02059
1.02293
1.01248
1.0143
0.99574
1.01658
0.994728
1.0104
0.993979
1.00538
0.989778
1.00064
0.979784
0.997823
0.973466
0.996762
0.967662
0.996345
0.969307
0.999728
0.963058
0.992862
0.961146
0.992738
0.95933
0.935976
0.989286
1.07486
1.06034
1.05411
1.05675
1.02218
1.06474
1.00996
1.06807
1.02515
1.0715
1.0316
1.07236
1.02331
1.06169
1.03015
1.05812
1.02838
1.06336
1.03237
1.05516
1.02849
1.04633
1.02301
1.04094
1.02281
1.02715
1.01716
1.02043
1.01061
1.01618
0.994047
1.01529
0.99698
1.00875
0.995956
1.00397
0.987862
0.999743
0.980342
0.996603
0.973951
0.996019
0.968212
1.00199
0.97166
0.999924
0.961088
0.989612
0.967945
0.989646
0.957622
0.945317
1.04308
0.986177
1.03684
0.996555
1.01999
1.02946
1.03824
1.06217
1.02644
1.06697
1.0324
1.07157
1.01647
1.07746
1.02421
1.075
1.03961
1.06804
1.03319
1.06754
1.03171
1.05384
1.03638
1.04642
1.02697
1.03819
1.02414
1.03503
1.01687
1.02043
1.00838
1.01874
0.993414
1.01477
0.993738
1.00709
0.992513
1.00651
0.986321
0.998504
0.980658
0.994717
0.973669
0.995249
0.971606
0.994247
0.968644
0.998084
0.962375
0.991452
0.969344
0.987226
0.955493
0.946283
0.992098
1.06624
1.04939
1.04549
1.05023
1.01939
1.05978
1.00675
1.06382
1.02074
1.06893
1.02418
1.07795
1.03506
1.07288
1.03176
1.05679
1.02868
1.06291
1.0257
1.0672
1.031
1.05319
1.03505
1.04368
1.02399
1.03659
1.02335
1.02572
1.01508
1.01899
1.00609
1.02117
0.992199
1.01423
0.994642
1.00852
0.991985
1.00474
0.986031
0.996968
0.980454
0.993256
0.973718
0.992892
0.972427
0.998007
0.971443
0.997712
0.961335
0.99147
0.966983
0.985219
0.95263
0.962483
1.04076
0.996854
1.04005
0.996272
1.01887
1.0328
1.03552
1.05952
1.0242
1.06652
1.02382
1.06676
1.0262
1.08053
1.01518
1.07098
1.04381
1.06995
1.03543
1.06741
1.03162
1.06576
1.04589
1.05292
1.03397
1.04548
1.02477
1.03458
1.02116
1.03173
1.01307
1.01908
1.00423
1.02011
0.992077
1.01196
0.994015
1.0075
0.989634
1.00422
0.984237
0.99538
0.981021
0.991803
0.977177
0.992947
0.972581
0.992123
0.970064
0.994521
0.959008
0.990312
0.966509
0.983002
0.949831
0.968015
0.990552
1.06005
1.03566
1.04121
1.05063
1.02314
1.05748
1.00588
1.06116
1.02332
1.06448
1.01531
1.07235
1.02597
1.07374
1.03692
1.06892
1.0352
1.06075
1.02856
1.06072
1.02614
1.06382
1.0359
1.05252
1.03261
1.04431
1.02464
1.03636
1.02074
1.02495
1.01155
1.01927
1.00207
1.01843
0.994795
1.01114
0.993452
1.00626
0.988201
1.00274
0.984139
0.99319
0.978401
0.99197
0.976005
0.989902
0.974418
0.995183
0.972136
0.994859
0.960263
0.988861
0.964933
0.980835
0.946915
0.980544
1.03875
1.00667
1.04055
0.996386
1.01663
1.02849
1.02898
1.05805
1.02517
1.06248
1.02155
1.06923
1.02285
1.07148
1.03108
1.0697
1.03878
1.06577
1.0382
1.06717
1.03206
1.06782
1.03719
1.06334
1.04646
1.05371
1.02976
1.04499
1.01987
1.03383
1.02078
1.0293
1.01008
1.02004
1.00206
1.01594
0.996069
1.00825
0.990787
1.00791
0.986925
1.00132
0.98222
0.992381
0.978289
0.990804
0.977553
0.989844
0.974904
0.989691
0.970009
0.992994
0.96339
0.986861
0.965754
0.978796
0.9438
0.982599
0.989916
1.0531
1.02949
1.03766
1.04983
1.02271
1.05826
1.0058
1.05752
1.03028
1.06773
1.01609
1.06706
1.02275
1.07165
1.02848
1.07215
1.04348
1.07122
1.03347
1.06622
1.02806
1.06373
1.03369
1.06171
1.03663
1.05712
1.03169
1.04592
1.0217
1.03432
1.01936
1.0246
1.0089
1.01968
1.00258
1.01361
0.996526
1.00919
0.988769
1.00884
0.98646
1.0005
0.980603
0.991918
0.977591
0.989813
0.975273
0.986587
0.976496
0.989971
0.972437
0.990793
0.965186
0.984887
0.959009
0.976864
0.940929
0.984116
1.03778
1.01425
1.03874
0.994536
1.01434
1.02606
1.02318
1.05715
1.02314
1.05744
1.03054
1.06561
1.02669
1.05828
1.04066
1.07327
1.04586
1.06845
1.04363
1.0688
1.03592
1.07005
1.02934
1.06897
1.04306
1.06022
1.04037
1.05893
1.0272
1.04619
1.02396
1.03133
1.01815
1.02815
1.00818
1.02099
1.0018
1.01118
0.995882
1.00872
0.98648
1.00973
0.984529
1.0002
0.978914
0.991566
0.977643
0.989145
0.977296
0.986039
0.976593
0.986733
0.971784
0.988974
0.970519
0.983951
0.959471
0.974356
0.938299
0.980905
0.987418
1.04815
1.01652
1.03155
1.04987
1.02371
1.05877
1.00568
1.05358
1.03441
1.06267
1.02136
1.063
1.02313
1.05757
1.02336
1.07411
1.03551
1.07337
1.03995
1.07557
1.03139
1.06712
1.03252
1.06567
1.03599
1.06155
1.03546
1.05786
1.02864
1.04321
1.02309
1.03247
1.01682
1.02355
1.0066
1.0203
1.00098
1.00949
0.993904
1.01165
0.984583
1.01115
0.983556
0.999419
0.976469
0.993384
0.977059
0.988137
0.977371
0.983817
0.978925
0.986983
0.975105
0.987243
0.961987
0.982149
0.961014
0.971603
0.936509
0.978481
1.03946
1.02117
1.04251
0.996117
1.01394
1.02979
1.01713
1.05366
1.02528
1.0543
1.0345
1.05713
1.03633
1.06092
1.04833
1.06616
1.04169
1.07135
1.05219
1.07118
1.04154
1.07393
1.03844
1.07293
1.03095
1.07062
1.04351
1.06558
1.03992
1.05981
1.02962
1.04527
1.02397
1.03112
1.01561
1.02637
1.00508
1.0208
1.0002
1.00818
0.991566
1.01333
0.98334
1.0087
0.982191
1.00113
0.974041
0.995538
0.976364
0.986656
0.979839
0.980827
0.977973
0.983549
0.972804
0.986732
0.966426
0.978752
0.961611
0.968309
0.933728
0.975899
0.988068
1.04049
1.00924
1.0269
1.05453
1.02545
1.05629
1.00969
1.05235
1.03641
1.0587
1.0325
1.05216
1.02404
1.05375
1.02473
1.06007
1.02994
1.07028
1.03841
1.07499
1.04035
1.07269
1.03372
1.06663
1.03617
1.06775
1.03527
1.06595
1.03462
1.05749
1.03074
1.04382
1.02292
1.03084
1.01417
1.02374
1.00423
1.02005
0.998512
1.00994
0.989688
1.01529
0.982535
1.00856
0.980098
1.00352
0.971584
0.994457
0.974742
0.984747
0.980016
0.97821
0.979014
0.983094
0.97365
0.985596
0.96462
0.975372
0.960075
0.964408
0.930054
0.975111
1.03773
1.02423
1.04951
0.994198
1.01468
1.02979
1.00956
1.05118
1.03056
1.0597
1.03748
1.05911
1.03833
1.05761
1.04312
1.05806
1.04459
1.06278
1.04487
1.07043
1.05333
1.07422
1.04484
1.0727
1.04022
1.0736
1.03516
1.07018
1.0433
1.06688
1.04295
1.05759
1.02848
1.04499
1.02153
1.03214
1.01291
1.02658
1.0038
1.01946
0.997826
1.01219
0.988334
1.01711
0.981655
1.00777
0.977311
1.00736
0.968916
0.997055
0.972945
0.982907
0.980709
0.976105
0.977675
0.979495
0.969937
0.985381
0.97026
0.972147
0.95791
0.959117
0.924693
0.982335
0.990617
1.03446
1.01372
1.02892
1.0596
1.02031
1.0524
1.01377
1.05285
1.03498
1.0591
1.02986
1.05713
1.02254
1.05576
1.03267
1.06002
1.03452
1.06227
1.03268
1.07041
1.03675
1.07668
1.04435
1.07063
1.03436
1.06739
1.04029
1.06786
1.03835
1.06587
1.03659
1.05609
1.0276
1.04504
1.02155
1.03109
1.01153
1.02324
1.00396
1.01875
0.996001
1.01166
0.987472
1.01688
0.980635
1.00976
0.974444
1.00976
0.966587
0.99911
0.970688
0.981459
0.979138
0.974545
0.975625
0.98121
0.97055
0.984138
0.965249
0.969104
0.955331
0.9532
0.919501
1.0005
1.03134
1.02397
1.04795
0.990749
1.01767
1.0257
1.00799
1.05118
1.03474
1.05599
1.02854
1.0594
1.03955
1.06577
1.03352
1.0577
1.04062
1.05663
1.04289
1.05937
1.04984
1.07086
1.04852
1.07494
1.04748
1.07337
1.04266
1.07186
1.03602
1.06808
1.04513
1.06742
1.04025
1.05841
1.02893
1.04273
1.02094
1.03309
1.01055
1.02391
1.00316
1.01797
0.995858
1.01093
0.986175
1.01496
0.979578
1.01157
0.971806
1.01069
0.964978
1.001
0.968527
0.980628
0.978705
0.972757
0.975465
0.980249
0.968017
0.983212
0.96887
0.966439
0.952529
0.949056
0.912421
1.01691
0.986325
1.0288
1.01534
1.02866
1.05963
1.01483
1.05227
1.0189
1.05079
1.03228
1.06002
1.03866
1.05878
1.02941
1.05756
1.03232
1.05587
1.03439
1.05591
1.03344
1.05735
1.03326
1.07176
1.03855
1.07639
1.04605
1.06952
1.03683
1.06541
1.04142
1.06714
1.04132
1.06579
1.03605
1.05585
1.02792
1.04473
1.0221
1.03048
1.00876
1.02264
1.00332
1.01706
0.994935
1.01113
0.987436
1.01593
0.978519
1.01299
0.96955
1.01306
0.965602
1.00063
0.967154
0.979367
0.977607
0.97071
0.973894
0.981666
0.967644
0.981878
0.964431
0.964111
0.949936
0.953153
0.903388
1.0151
1.0314
1.01921
1.03815
0.995111
1.02218
1.02321
1.01107
1.05204
1.0371
1.05425
1.02676
1.0611
1.03551
1.06203
1.03203
1.05866
1.04614
1.06161
1.04457
1.05383
1.05416
1.06267
1.04838
1.07025
1.05024
1.07359
1.04846
1.0712
1.04545
1.07054
1.0391
1.0673
1.0446
1.0663
1.03913
1.05763
1.02773
1.04257
1.02164
1.03289
1.0085
1.02167
1.00246
1.01653
0.99477
1.0127
0.986434
1.01638
0.97761
1.01496
0.967785
1.01323
0.962727
0.999955
0.965577
0.979653
0.976729
0.968219
0.973553
0.980772
0.965007
0.980178
0.964256
0.962273
0.947082
0.972203
0.912468
1.01053
0.985558
1.02625
1.00151
1.02584
1.05298
1.00996
1.04996
1.01605
1.04588
1.03125
1.06045
1.03543
1.0586
1.03424
1.05814
1.03817
1.05248
1.02986
1.05921
1.04349
1.05217
1.03411
1.06289
1.03455
1.07091
1.03984
1.0739
1.04622
1.0694
1.04204
1.06563
1.04234
1.06749
1.04213
1.06505
1.03634
1.05552
1.02563
1.04414
1.02087
1.02992
1.00734
1.02058
1.00128
1.01493
0.993266
1.01268
0.98498
1.01643
0.976613
1.01683
0.966515
1.01085
0.967697
0.998175
0.963921
0.980201
0.975467
0.966135
0.972481
0.981161
0.965755
0.978877
0.96145
0.960564
0.944585
0.983253
0.931036
1.00567
1.033
1.01533
1.04339
1.00447
1.02344
1.02438
1.01822
1.0519
1.04151
1.0564
1.02783
1.05915
1.03147
1.05264
1.03877
1.05467
1.04102
1.05701
1.04551
1.05876
1.044
1.05526
1.04571
1.06166
1.04805
1.07064
1.05243
1.07347
1.04883
1.07173
1.0473
1.07154
1.04229
1.06737
1.04567
1.06643
1.03748
1.0569
1.02798
1.04274
1.01984
1.03167
1.00798
1.01985
1.00021
1.01481
0.99264
1.01339
0.985629
1.01627
0.975448
1.01688
0.966245
1.00876
0.967548
0.997547
0.962235
0.981744
0.973829
0.965144
0.971603
0.980055
0.963372
0.977241
0.964719
0.95996
0.939408
0.985409
0.942496
1.00053
0.984851
1.02575
0.997651
1.02004
1.04329
1.00296
1.04438
1.01197
1.04247
1.028
1.05446
1.03301
1.05252
1.03562
1.0499
1.03619
1.05306
1.03926
1.05495
1.03572
1.05876
1.04398
1.05313
1.03805
1.06039
1.0364
1.07059
1.04475
1.07278
1.04666
1.069
1.04487
1.06504
1.04225
1.06629
1.03945
1.06596
1.03535
1.05575
1.02812
1.04247
1.02
1.02949
1.00658
1.01874
0.998929
1.0139
0.99159
1.01458
0.983652
1.01723
0.974234
1.01737
0.970166
1.00818
0.965795
0.998006
0.960795
0.981624
0.971686
0.9632
0.969696
0.979544
0.962799
0.975015
0.959513
0.959335
0.944341
0.982085
0.94213
0.997472
1.0346
1.01605
1.04909
1.00887
1.02461
1.02933
1.02266
1.05241
1.04598
1.05734
1.02778
1.05499
1.02863
1.0519
1.03842
1.05125
1.0423
1.05264
1.03416
1.05183
1.04027
1.05708
1.04721
1.05514
1.04539
1.05754
1.04938
1.07055
1.05343
1.07429
1.05093
1.06976
1.05015
1.07172
1.04368
1.06887
1.04568
1.06851
1.03599
1.0555
1.03115
1.04161
1.02014
1.02908
1.0077
1.01871
0.997299
1.01405
0.992142
1.01575
0.984419
1.01754
0.974007
1.01788
0.968983
1.00842
0.963612
0.998006
0.960057
0.981144
0.969992
0.964538
0.968566
0.978093
0.961532
0.972672
0.960102
0.956976
0.95331
0.9772
0.939482
0.997098
0.985379
1.02706
1.00848
1.01624
1.04004
0.998164
1.04007
1.00686
1.0425
1.02591
1.05241
1.02839
1.049
1.0345
1.05124
1.03754
1.04775
1.03841
1.05186
1.0364
1.05025
1.03387
1.05491
1.04253
1.05179
1.03674
1.05308
1.03593
1.0683
1.04659
1.0705
1.0481
1.06964
1.0453
1.06422
1.04434
1.06575
1.04107
1.06743
1.0344
1.0544
1.03113
1.04112
1.02064
1.0283
1.00634
1.01768
0.995774
1.01357
0.991891
1.01675
0.983821
1.01971
0.973551
1.01494
0.967805
1.0085
0.963286
0.997298
0.959441
0.980786
0.968481
0.966427
0.966994
0.977191
0.963518
0.971041
0.958263
0.956416
0.955455
0.971422
0.933481
1.01663
1.03674
1.01688
1.04295
1.00717
1.02437
1.03214
1.024
1.05469
1.04744
1.05573
1.0309
1.0479
1.03614
1.04729
1.03649
1.05228
1.03834
1.05449
1.04158
1.05406
1.04174
1.05432
1.04889
1.05467
1.04603
1.05628
1.04225
1.06547
1.05055
1.07199
1.05718
1.0723
1.05369
1.06909
1.04855
1.06662
1.04907
1.06919
1.04275
1.06909
1.03626
1.05468
1.03052
1.03968
1.0194
1.02758
1.00794
1.01771
0.995466
1.01273
0.991574
1.01815
0.984849
1.02036
0.977597
1.01635
0.966972
1.00831
0.965695
0.995443
0.957565
0.979377
0.966738
0.968804
0.965753
0.975489
0.965027
0.968999
0.957112
0.957695
0.954493
0.967121
0.923404
1.031
0.988138
1.02526
1.01101
1.0152
1.04071
0.997274
1.03815
1.00416
1.03967
1.02174
1.04708
1.03513
1.03974
1.03322
1.04395
1.04001
1.05163
1.03483
1.04748
1.03804
1.04936
1.03791
1.05187
1.0383
1.05414
1.04144
1.05477
1.03992
1.05378
1.03608
1.06752
1.04602
1.07148
1.04853
1.0707
1.04574
1.06654
1.04698
1.06807
1.04001
1.06748
1.03663
1.05337
1.03143
1.03984
1.01889
1.02715
1.00431
1.01766
0.993176
1.01217
0.991247
1.0187
0.982912
1.02149
0.974457
1.01984
0.96973
1.00696
0.967126
0.995044
0.957475
0.978829
0.964905
0.969526
0.96581
0.972792
0.965075
0.969033
0.955901
0.96072
0.951672
0.972926
0.912538
1.02882
1.03393
1.0152
1.03838
1.00827
1.02195
1.03033
1.02407
1.05441
1.0484
1.05197
1.03766
1.05122
1.04444
1.0531
1.0472
1.05323
1.04129
1.04925
1.04118
1.04949
1.04236
1.05125
1.04274
1.05093
1.04013
1.05639
1.04411
1.05494
1.04287
1.0645
1.05241
1.06861
1.05707
1.07302
1.05434
1.06932
1.05
1.063
1.04599
1.07218
1.04083
1.06737
1.03966
1.0533
1.03258
1.0388
1.01746
1.02741
1.00549
1.01846
0.993906
1.01147
0.990423
1.01945
0.986707
1.02211
0.975163
1.02021
0.969668
1.00645
0.966017
0.994145
0.957492
0.979936
0.962976
0.96998
0.966729
0.969506
0.96476
0.968366
0.954214
0.966803
0.94818
0.986345
0.930633
1.0245
0.985295
1.02753
1.00315
1.01167
1.03901
0.994849
1.03477
1.00124
1.04075
1.01651
1.04439
1.03034
1.04452
1.03553
1.04723
1.03972
1.04354
1.03655
1.04755
1.04038
1.04645
1.03573
1.0514
1.0379
1.05215
1.03864
1.05643
1.04235
1.05512
1.03678
1.05426
1.03893
1.06832
1.04487
1.07128
1.0486
1.0674
1.04604
1.06705
1.04491
1.06888
1.04216
1.06595
1.04067
1.052
1.0296
1.03962
1.01732
1.02746
1.0031
1.01885
0.993808
1.01197
0.989699
1.01987
0.985393
1.02243
0.975721
1.02052
0.970043
1.00627
0.964317
0.993115
0.957378
0.98093
0.961229
0.968937
0.965711
0.966499
0.963724
0.966738
0.953021
0.969916
0.94517
0.985816
0.937752
1.0207
1.03581
1.0176
1.03967
1.01244
1.02193
1.03062
1.02517
1.05583
1.04538
1.05031
1.03788
1.05568
1.04399
1.05054
1.04184
1.04749
1.04334
1.05151
1.04362
1.04816
1.0416
1.05107
1.04396
1.0482
1.03839
1.05527
1.03813
1.05599
1.04296
1.05515
1.04477
1.06429
1.04403
1.07019
1.05527
1.07116
1.05065
1.0704
1.04662
1.06499
1.04371
1.07265
1.04432
1.06532
1.04326
1.05214
1.03104
1.03833
1.01559
1.02724
1.00332
1.01949
0.993662
1.01282
0.988864
1.01971
0.987208
1.02154
0.974544
1.01935
0.966686
1.00584
0.968225
0.99165
0.956486
0.981046
0.95954
0.969649
0.964536
0.964043
0.962175
0.965784
0.952079
0.972218
0.941723
0.982282
0.934511
1.02143
0.990656
1.02882
1.00314
1.00844
1.03543
0.990634
1.03104
0.998488
1.03697
1.01147
1.04256
1.03087
1.04714
1.0257
1.047
1.03951
1.04551
1.03922
1.04701
1.03521
1.0456
1.0382
1.05194
1.03742
1.04973
1.03639
1.05594
1.03967
1.055
1.04047
1.05431
1.03842
1.05366
1.0437
1.06759
1.04725
1.07112
1.04882
1.07013
1.04352
1.06813
1.04537
1.06762
1.04271
1.06423
1.04155
1.05124
1.0304
1.0381
1.01543
1.02752
1.00335
1.0192
0.993871
1.01386
0.988694
1.01843
0.988421
1.02166
0.975014
1.02181
0.967333
1.00435
0.970859
0.991472
0.954849
0.981027
0.957374
0.97206
0.963152
0.96226
0.960669
0.965367
0.951164
0.972133
0.948332
0.978821
0.926082
1.04477
1.03186
1.02002
1.03489
1.01257
1.02107
1.03739
1.0249
1.05669
1.04397
1.04904
1.04523
1.05473
1.03843
1.04706
1.04581
1.05532
1.04638
1.05034
1.04218
1.05125
1.04233
1.04814
1.03996
1.05034
1.04446
1.05124
1.03761
1.05529
1.04032
1.05486
1.0425
1.05475
1.04458
1.06199
1.04257
1.06976
1.0531
1.07101
1.05028
1.0707
1.04634
1.06532
1.04372
1.07266
1.04865
1.06356
1.04273
1.05099
1.03055
1.03762
1.01452
1.02629
1.00363
1.01904
0.99267
1.01521
0.988741
1.01739
0.987524
1.02162
0.971477
1.02052
0.969042
1.00229
0.969491
0.990913
0.954425
0.980574
0.957041
0.9737
0.961978
0.960957
0.958826
0.965198
0.950361
0.973657
0.95021
0.976999
0.915401
1.04922
0.984559
1.03309
0.999378
1.01167
1.02919
0.986028
1.02882
0.998768
1.03534
1.01179
1.04417
1.02504
1.04491
1.03651
1.04481
1.03767
1.04558
1.03821
1.04749
1.04259
1.04627
1.04162
1.04747
1.03809
1.05034
1.03758
1.05236
1.03572
1.05649
1.04255
1.05562
1.03908
1.05285
1.03709
1.05366
1.04129
1.06372
1.04819
1.072
1.04803
1.06889
1.04523
1.06851
1.04479
1.06728
1.04569
1.06251
1.04096
1.04956
1.02938
1.03742
1.01514
1.02617
1.00355
1.01864
0.992153
1.01554
0.990255
1.01647
0.986605
1.02107
0.973102
1.01988
0.974104
1.00098
0.969069
0.990332
0.954558
0.979475
0.95602
0.972574
0.960938
0.959803
0.956635
0.967335
0.948926
0.977946
0.948449
0.980911
0.921379
1.04569
1.03914
1.02352
1.03322
1.01576
1.02112
1.03863
1.02305
1.05786
1.04153
1.04778
1.047
1.05866
1.04211
1.05258
1.04315
1.05017
1.04375
1.04955
1.04561
1.04777
1.04206
1.04981
1.03851
1.05038
1.04151
1.05061
1.04295
1.05368
1.03853
1.05396
1.04362
1.05708
1.03964
1.05432
1.04127
1.06129
1.04323
1.06946
1.0526
1.07223
1.04926
1.06938
1.04764
1.06456
1.04501
1.07059
1.04993
1.06188
1.04142
1.05032
1.02967
1.03617
1.01546
1.02472
1.00477
1.01827
0.992888
1.01635
0.991815
1.01569
0.98588
1.02153
0.972896
1.01815
0.971199
1.00167
0.968155
0.989558
0.955207
0.97818
0.956067
0.971126
0.95929
0.959581
0.954081
0.969051
0.946778
0.98373
0.943331
0.978821
0.937146
1.0413
0.989498
1.03565
0.997106
1.00717
1.02319
0.992609
1.02838
1.00121
1.03661
1.01417
1.05065
1.0231
1.04393
1.03277
1.04417
1.03791
1.05038
1.04085
1.04883
1.04423
1.04674
1.04063
1.04825
1.0426
1.04865
1.03956
1.05179
1.03662
1.05333
1.03868
1.05433
1.04233
1.05654
1.03996
1.05278
1.0385
1.05348
1.04201
1.06459
1.04839
1.07195
1.04794
1.06737
1.0455
1.06881
1.04607
1.06662
1.04703
1.06131
1.03939
1.04882
1.02849
1.03618
1.01613
1.02438
1.00354
1.01771
0.992203
1.01627
0.992683
1.01481
0.984144
1.02293
0.97269
1.01634
0.970025
1.00103
0.970554
0.988491
0.955532
0.976397
0.955795
0.969986
0.957119
0.96017
0.951344
0.971116
0.943884
0.986137
0.946523
0.976168
0.937394
1.03919
1.04066
1.02746
1.02995
1.0156
1.02342
1.0372
1.017
1.05602
1.03922
1.04783
1.04679
1.05829
1.0501
1.04977
1.04365
1.04827
1.03697
1.04966
1.04523
1.05055
1.04332
1.04704
1.04025
1.04864
1.04057
1.05131
1.04291
1.05123
1.04204
1.05398
1.0405
1.05357
1.04174
1.05582
1.04126
1.0525
1.03878
1.06055
1.03929
1.06842
1.05233
1.07173
1.04826
1.06925
1.04694
1.06409
1.04715
1.06887
1.04854
1.06132
1.04069