/*--------------------------------*- C++ -*----------------------------------*\
| =========                 |                                                 |
| \\      /  F ield         | OpenFOAM: The Open Source CFD Toolbox           |
|  \\    /   O peration     | Version:  2206                                  |
|   \\  /    A nd           | Website:  www.openfoam.com                      |
|    \\/     M anipulation  |                                                 |
\*---------------------------------------------------------------------------*/
FoamFile
{
    version     2.0;
    format      ascii;
    arch        "LSB;label=32;scalar=64";
    class       volScalarField;
    location    "150";
    object      rho;
}
// * * * * * * * * * * * * * * * * * * * * * * * * * * * * * * * * * * * * * //

dimensions      [1 -3 0 0 0 0 0];

internalField   nonuniform List<scalar> 
93840
(
1.70278
0.84439
1.46482
1.26269
0.882773
1.21436
0.897337
1.23274
0.959046
1.02782
1.13654
0.856592
1.18841
1.00266
1.07734
1.01132
1.20763
1.00461
1.09372
0.955335
0.891889
1.04641
0.873961
1.11703
1.13643
1.06913
1.05445
0.87681
0.979047
1.16824
1.00255
1.0255
0.999334
1.02794
1.10081
0.632076
1.09948
0.883532
1.05932
1.0639
1.04147
1.03318
1.02903
1.00625
0.984468
0.940112
1.15881
1.01649
0.971539
1.00391
1.00878
1.00811
0.996234
0.932779
0.680056
1.09215
0.943097
1.02857
1.0276
1.02053
1.0135
1.01221
0.984625
0.964535
1.11569
1.00715
0.988101
1.13191
1.03938
0.983076
1.00366
1.01301
0.963028
0.980966
0.956869
0.945529
1.05019
0.759504
1.07195
0.955859
1.013
1.02934
1.03759
1.02936
0.998503
0.980976
0.985925
0.991461
0.964882
1.06009
1.03422
0.990051
1.10947
1.05347
1.00492
1.01475
1.02864
0.950089
1.0007
0.959002
0.972247
0.979618
0.99183
1.04217
0.799902
1.08313
0.97473
1.00178
1.03129
1.03857
1.02841
0.999214
0.999785
0.992286
0.992414
0.987779
0.997397
0.981838
1.04768
1.009
0.993539
1.09619
1.06573
1.01882
1.02614
1.03288
0.964675
1.00395
0.963882
0.996178
0.975018
0.974628
0.996905
0.998904
1.036
0.816024
1.05426
0.989627
1.00041
1.03356
1.0333
1.01925
1.00822
0.982399
1.00282
0.991993
0.984457
0.992332
0.991028
0.997677
0.994917
1.03033
0.992416
0.991262
1.07958
1.07347
1.02662
1.04135
1.04077
0.978665
1.00695
0.985922
0.997098
0.979279
0.989059
0.984376
0.982357
0.997001
0.997768
1.02227
0.833645
1.06889
1.01237
0.99911
1.03694
1.03747
1.02454
1.02076
0.983754
1.00418
0.975646
0.996754
0.999028
0.987992
0.986948
0.987852
0.992569
0.990058
1.02161
0.994612
0.934995
1.05723
1.06619
1.02786
1.04367
1.04097
0.992263
1.01123
0.982429
1.00492
0.986262
0.996848
0.982474
0.99696
0.983649
0.971403
0.998435
0.993835
1.02321
0.861791
1.13276
1.02931
1.00367
1.03706
1.03763
1.03014
1.03113
0.993206
1.01439
0.982332
1.00218
0.984095
0.992913
0.991181
0.986833
0.987658
0.983686
0.993882
0.987833
1.02094
0.99828
0.95222
1.0367
1.05948
1.03101
1.04274
1.04844
1.00556
1.01348
0.985592
1.01518
0.98044
0.999541
0.983512
0.990184
0.984873
0.99887
0.981887
0.974031
0.996159
0.988046
1.02129
0.868687
1.12873
1.03147
1.00065
1.03427
1.03271
1.03397
1.03741
0.997905
1.00912
0.979276
1.00991
0.98036
1.0022
0.980478
0.993719
0.993006
0.986599
0.9873
0.978113
0.983984
0.994754
1.0173
0.989877
0.983003
1.02602
1.06575
1.03318
1.04127
1.04891
1.01827
1.02426
1.00763
1.01234
0.988065
1.00918
0.986554
0.996942
0.987918
0.990842
0.983944
0.988785
0.986118
0.971778
0.99772
0.986625
1.01762
0.890421
1.11213
1.03318
0.995802
1.03532
1.03364
1.04046
1.04316
1.00309
1.01468
0.991217
1.0094
0.980225
1.00207
0.970763
1.00358
0.981872
0.987048
0.987512
0.982477
0.980494
0.979577
0.983454
0.994563
1.00918
0.921636
0.999267
1.0248
1.0677
1.03453
1.04189
1.04936
1.03295
1.04358
1.02022
1.01467
0.999712
1.01181
0.993625
1.00544
0.984073
0.996714
0.989344
0.990615
0.984262
0.984027
0.986066
0.973769
0.99267
0.985716
1.00144
0.910703
1.09476
1.03934
0.996616
1.03565
1.03679
1.03215
1.04272
1.00939
1.01749
0.993941
1.01422
0.983414
1.00598
0.974113
1.0052
0.969073
1.00015
0.979622
0.983129
0.980319
0.981519
0.981727
0.981189
0.981392
0.987421
1.01449
0.928964
1.00797
1.01947
1.05698
1.03352
1.04155
1.04424
1.02876
1.05071
1.0194
1.02832
1.00675
1.01675
0.985358
1.00655
0.985761
1.00771
0.985555
0.993661
0.982041
0.982874
0.977133
0.983395
0.98667
0.974507
0.98827
0.983646
1.01009
0.924098
1.08145
1.04166
0.99399
1.03598
1.03339
1.02839
1.04783
1.01812
1.03383
1.0081
1.02733
0.992846
1.01527
0.983827
1.00764
0.969493
1.0028
0.969183
0.992381
0.977752
0.987709
0.977851
0.985039
0.981676
0.980185
0.979045
0.980134
1.00638
0.927042
1.01735
1.01365
1.04777
1.03033
1.04014
1.04184
1.03506
1.0552
1.01672
1.04321
1.00743
1.02515
0.99533
1.02248
0.976962
1.01473
0.983359
1.01053
0.987084
0.9916
0.976527
0.989135
0.972032
0.985062
0.989747
0.97388
0.981504
0.978722
1.00621
0.918249
1.06895
1.04227
0.992479
1.03511
1.03296
1.02113
1.04742
1.01622
1.04285
1.00382
1.03417
1.00532
1.02253
0.991032
1.01728
0.982874
1.0148
0.967914
1.00669
0.973729
0.994405
0.972203
0.992227
0.975929
0.989325
0.973394
0.976521
0.978648
0.976921
1.00576
0.929291
1.0221
1.00786
1.04056
1.02263
1.0306
1.03327
1.02584
1.05367
1.01335
1.05456
1.01713
1.03548
1.00876
1.02445
0.988507
1.02848
0.980655
1.02314
0.990085
1.01092
0.980301
0.993126
0.968068
0.994223
0.977325
0.987715
0.986883
0.977325
0.981654
0.972712
1.00688
0.923714
1.05615
1.0372
0.996827
1.03432
1.0344
1.02231
1.04511
1.01427
1.05022
1.00504
1.04013
1.00549
1.02931
1.00428
1.02012
0.987484
1.0151
0.985996
1.02029
0.970746
1.00919
0.97102
1.00105
0.970823
0.996043
0.977689
0.992396
0.971492
0.976691
0.977531
0.979922
1.00431
0.93383
1.01924
1.00185
1.04255
1.01777
1.02268
1.03073
1.02146
1.04876
1.00699
1.04769
1.00913
1.04255
1.01756
1.02121
1.00679
1.02364
0.982499
1.0291
0.985455
1.02232
0.988071
1.01594
0.980318
0.995539
0.967513
0.996151
0.978455
0.986553
0.985502
0.97949
0.978361
0.975556
1.0016
0.934567
1.04304
1.03231
1.0096
1.04067
1.03633
1.02476
1.04091
1.01428
1.04084
1.00524
1.04302
1.00608
1.03516
1.00705
1.01556
1.00086
1.01636
0.985106
1.01529
0.986286
1.0228
0.973097
1.01324
0.974952
1.0045
0.971164
0.99807
0.978729
0.991922
0.970237
0.987284
0.974316
0.982491
1.00528
0.953355
1.01708
0.995631
1.03691
1.01351
1.01571
1.02923
1.01724
1.05181
0.999049
1.05253
1.00519
1.04587
1.01487
1.0328
1.01798
1.02282
1.00132
1.02514
0.984363
1.02991
0.985926
1.02042
0.980871
1.01617
0.975485
0.999976
0.970642
0.995011
0.979286
0.990243
0.979885
0.983672
0.977358
0.983066
1.00418
0.947205
1.03403
1.03012
1.0251
1.04454
1.03314
1.01962
1.03994
1.01121
1.03604
0.999332
1.03571
1.00584
1.03732
1.0096
1.02844
1.00795
1.01852
0.99748
1.01709
0.98704
1.02065
0.98822
1.0219
0.976123
1.01677
0.972847
1.00436
0.967487
0.999625
0.977326
0.994313
0.969342
0.991995
0.973137
0.98809
1.00091
0.959839
1.01551
0.987583
1.0322
1.00646
1.00879
1.02904
1.0163
1.05653
0.997904
1.05627
1.00116
1.04658
1.01166
1.03656
1.01984
1.02833
1.00963
1.01765
1.00168
1.02035
0.983439
1.03024
0.984322
1.01647
0.983449
1.01154
0.975061
1.001
0.967605
0.993499
0.97667
0.990571
0.975072
0.988369
0.971831
0.991013
0.997781
0.957987
1.02844
1.03431
1.03514
1.04717
1.03336
1.01933
1.04574
1.017
1.03694
1.00193
1.03082
1.00607
1.03391
1.01162
1.03197
1.01285
1.02376
1.00633
1.01573
0.995363
1.0184
0.990095
1.02343
0.991907
1.01313
0.978254
1.01739
0.968779
1.00528
0.969796
0.996972
0.974118
0.998916
0.966928
0.992779
0.970517
0.996961
0.995129
0.961235
1.01641
0.985424
1.03771
1.00893
1.01186
1.0292
1.02315
1.05056
1.01617
1.05675
0.993596
1.0501
1.00484
1.03547
1.01585
1.02652
1.01886
1.02487
1.00414
1.01421
0.995344
1.02364
0.980539
1.0208
0.996921
1.01902
0.987752
1.01087
0.976655
0.99938
0.969654
0.992935
0.973911
0.995939
0.975995
0.993103
0.969633
1.00106
0.992584
0.95977
1.02247
1.03453
1.04219
1.0436
1.03388
1.02398
1.04738
1.02155
1.05381
1.01039
1.04191
1.00823
1.02901
1.00923
1.03152
1.01369
1.02452
1.00796
1.01997
1.00166
1.01437
0.993831
1.02199
0.995338
1.0199
0.99096
1.01503
0.975109
1.01661
0.96964
1.00361
0.970003
0.998628
0.971847
1.00464
0.962095
0.99512
0.967535
1.00354
0.990157
0.966669
1.01911
0.984591
1.03782
1.00556
1.01113
1.0297
1.03414
1.04743
1.02298
1.05714
1.01166
1.0398
1.00285
1.0335
1.00706
1.03141
1.01051
1.02526
1.01117
1.02069
1.00039
1.01344
0.990798
1.02299
0.992022
1.02346
0.992122
1.01794
0.984522
1.00739
0.975273
0.998923
0.967098
0.991299
0.97158
0.998713
0.97709
0.997719
0.96603
1.00768
0.987357
0.963932
1.01591
1.02926
1.0483
1.04505
1.04185
1.0279
1.05312
1.01887
1.05888
1.01179
1.04996
1.01206
1.03926
1.00726
1.02933
1.00857
1.03159
1.01106
1.01995
1.00837
1.01722
0.998207
1.0163
0.993353
1.01897
0.997831
1.01959
0.993693
1.01471
0.976903
1.01343
0.971913
1.00218
0.968793
0.999164
0.96896
1.01352
0.956638
1.00153
0.964751
1.00279
0.984604
0.971115
1.02159
0.978427
1.03832
1.00128
1.01674
1.02784
1.03686
1.04049
1.01623
1.05151
1.02247
1.04865
1.02263
1.03749
1.00445
1.03337
1.00523
1.03166
1.00782
1.02237
1.00701
1.01873
0.998178
1.01639
0.991294
1.0208
0.991532
1.02042
0.995789
1.01554
0.983199
1.00787
0.978242
0.996012
0.965979
0.991945
0.967479
1.00272
0.976337
0.998734
0.963836
1.00389
0.981269
0.958973
1.00951
1.03426
1.04992
1.04928
1.04725
1.02493
1.05473
1.01713
1.052
1.01473
1.05986
1.01109
1.04904
1.00936
1.03447
1.00476
1.027
1.00547
1.02951
1.01063
1.01994
1.0048
1.01787
0.995172
1.01464
0.992542
1.01921
0.997128
1.01836
0.992311
1.01288
0.975018
1.00802
0.973509
0.99909
0.967364
1.00294
0.968033
1.01647
0.957384
0.998656
0.968414
1.00122
0.977157
0.964383
1.02196
0.973463
1.03569
1.00147
1.01089
1.01565
1.03388
1.03678
1.00838
1.05233
1.01367
1.05148
1.02813
1.04498
1.01783
1.03162
1.00588
1.03311
1.00492
1.02875
1.00466
1.02366
1.00424
1.0175
0.99772
1.0165
0.990545
1.01825
0.992761
1.01848
0.995548
1.0124
0.982032
1.00591
0.976858
0.996143
0.96441
0.993932
0.965013
1.00028
0.978147
0.99273
0.966556
0.998437
0.97284
0.957995
1.0035
1.04362
1.05545
1.04797
1.04866
1.01928
1.05227
1.01668
1.04376
1.01731
1.05906
1.01278
1.05682
1.01141
1.05041
1.00932
1.03443
1.0053
1.02697
1.00302
1.02879
1.00739
1.02219
1.00249
1.01578
0.994781
1.01319
0.99325
1.01629
0.997987
1.01716
0.993974
1.00988
0.976442
1.00464
0.972894
0.998673
0.963601
1.00509
0.966191
1.01788
0.958986
1.0029
0.968372
0.997236
0.96931
0.960385
1.02478
0.967736
1.02463
0.992911
1.0089
1.01311
1.0253
1.04252
1.0074
1.04876
1.01262
1.04493
1.03027
1.05286
1.02574
1.04424
1.02036
1.03523
1.00727
1.02988
1.00359
1.02729
1.00265
1.02106
1.00214
1.01451
0.993888
1.01654
0.992861
1.01608
0.993735
1.01532
0.995986
1.01003
0.978597
1.00448
0.974438
0.997782
0.964036
0.994829
0.965856
0.999371
0.977348
0.992092
0.965613
1.00267
0.967598
0.955619
0.999975
1.05595
1.05915
1.04809
1.05006
1.01461
1.04038
1.01635
1.04584
1.01523
1.05035
1.01379
1.04105
1.02084
1.05319
1.01949
1.04992
1.00906
1.03318
1.00488
1.02774
1.00617
1.02645
1.00487
1.02031
0.999783
1.01307
0.993979
1.01189
0.991687
1.01492
1.00298
1.01356
0.992126
1.00874
0.97863
1.00461
0.969673
0.997644
0.963781
1.00423
0.968498
1.01427
0.960194
1.00115
0.967527
1.00734
0.965941
0.967877
1.02493
0.97191
1.02385
0.989957
1.0108
1.01193
1.01542
1.04279
1.00885
1.0547
1.01552
1.04815
1.02344
1.05236
1.02857
1.04834
1.02741
1.04668
1.02171
1.03095
1.00738
1.02962
1.00281
1.02408
1.00503
1.01968
1.00175
1.01124
0.992862
1.01597
0.996903
1.01329
0.993675
1.01208
0.997154
1.00755
0.980515
1.00287
0.974628
0.997235
0.964079
0.995185
0.968297
0.998419
0.9761
0.988721
0.96287
1.00899
0.968589
0.970589
0.99723
1.05641
1.05503
1.04362
1.04671
1.01343
1.03346
1.00669
1.04889
1.00641
1.04815
1.01526
1.04818
1.01543
1.04459
1.0251
1.04577
1.01394
1.04875
1.01535
1.02957
1.00677
1.02515
1.00569
1.02197
1.00475
1.01793
1.00007
1.01008
0.990957
1.01181
0.993202
1.01287
1.00215
1.00955
0.991678
1.00695
0.975334
1.00358
0.970326
0.99576
0.964558
1.003
0.969973
1.01208
0.963184
1.00701
0.962256
1.00692
0.971059
0.979013
1.02465
0.978994
1.02737
0.994224
1.01206
1.0122
1.00807
1.03838
1.01392
1.04542
1.0151
1.04299
1.01029
1.05235
1.02635
1.0525
1.02957
1.0522
1.03493
1.04466
1.02359
1.03405
1.00886
1.02816
1.00558
1.02841
1.00529
1.01655
0.998968
1.00974
0.991613
1.01602
0.994337
1.01131
0.993505
1.0107
0.992697
1.00633
0.980063
1.00183
0.973706
0.995537
0.965779
0.995367
0.970381
0.998061
0.971373
0.984228
0.966589
1.00368
0.971339
0.975446
0.99414
1.05273
1.04896
1.03675
1.04485
1.01163
1.03104
0.99561
1.04772
1.00815
1.04731
1.01421
1.0493
1.01472
1.04579
1.0186
1.04479
1.02145
1.05136
1.02032
1.04494
1.01535
1.03193
1.00776
1.0262
1.00695
1.0198
1.00248
1.01483
0.997379
1.01053
0.990699
1.01079
0.994126
1.01023
0.997168
1.00943
0.990607
1.0054
0.980894
1.00087
0.972517
0.995205
0.966303
1.0001
0.970258
1.01054
0.96445
1.00164
0.971977
1.00153
0.969891
0.982922
1.02736
0.993465
1.02532
0.99894
1.01388
1.02137
1.01135
1.0317
1.01509
1.03848
1.01704
1.04275
1.00463
1.04992
1.0141
1.05271
1.02787
1.05156
1.02758
1.05038
1.02753
1.04318
1.02371
1.03279
1.00922
1.02453
1.00471
1.02567
1.00211
1.01442
0.995779
1.01356
0.989395
1.01447
0.993008
1.00917
0.994701
1.01174
0.989886
1.00428
0.981196
0.99964
0.973995
0.994633
0.967929
0.993079
0.969603
0.997398
0.968218
0.984067
0.971593
0.999678
0.967874
0.983672
0.996183
1.04575
1.0411
1.03098
1.03871
1.01408
1.0304
0.987105
1.04362
1.00135
1.04671
1.00737
1.05158
1.01586
1.05052
1.02092
1.04151
1.01801
1.04839
1.01878
1.05678
1.0244
1.04345
1.02187
1.03106
1.00885
1.02317
1.0069
1.01903
1.00046
1.01303
0.994177
1.01569
0.988745
1.00928
0.993345
1.01043
0.994519
1.01059
0.989776
1.00293
0.97905
0.999106
0.973026
0.993008
0.968457
0.997116
0.969312
1.00765
0.964197
1.00128
0.972651
0.998098
0.965972
0.997138
1.02608
1.00131
1.02756
0.999678
1.01357
1.0268
1.01341
1.02755
1.01377
1.03744
1.01375
1.03892
1.01253
1.04893
1.00469
1.04732
1.02787
1.04923
1.02405
1.05134
1.02783
1.04893
1.03851
1.04362
1.02191
1.03315
1.00997
1.0218
1.0031
1.02436
0.998982
1.01323
0.993022
1.0146
0.987869
1.01222
0.994088
1.00972
0.992683
1.01007
0.98901
1.00165
0.983164
0.998199
0.975042
0.993697
0.969096
0.991544
0.971012
0.998864
0.967298
0.98594
0.9704
0.996403
0.963934
0.999534
0.995527
1.04209
1.03225
1.0296
1.03795
1.01877
1.03509
0.985296
1.04286
1.00414
1.04427
0.998843
1.04746
1.00837
1.04776
1.01662
1.04575
1.02289
1.04308
1.0182
1.04672
1.01713
1.0514
1.02547
1.04217
1.02118
1.03182
1.00884
1.02334
1.00437
1.01822
0.997994
1.0134
0.991501
1.01294
0.990632
1.00891
0.991078
1.00884
0.991677
1.0097
0.988846
1.0003
0.976921
0.997538
0.97597
0.991056
0.970996
0.995159
0.969702
1.00146
0.961598
0.996863
0.97069
0.994681
0.961749
1.00986
1.02555
1.00846
1.03082
1.00161
1.01228
1.02622
1.01593
1.02572
1.01524
1.03461
1.01268
1.04128
1.01262
1.04256
1.01527
1.04212
1.02148
1.04315
1.0247
1.04699
1.02088
1.05115
1.03108
1.04937
1.03912
1.04337
1.01985
1.03287
1.00685
1.02155
1.00364
1.02117
0.997045
1.01402
0.991292
1.01114
0.991063
1.00775
0.991199
1.00993
0.990817
1.00856
0.987433
0.999606
0.980188
0.997288
0.976311
0.991639
0.969183
0.990426
0.97091
0.999523
0.970365
0.990559
0.968548
0.993133
0.959286
1.01189
0.995708
1.03873
1.02771
1.0299
1.04142
1.02256
1.04371
0.988396
1.0389
1.00839
1.0472
1.00137
1.04525
1.00523
1.04555
1.01052
1.04446
1.02046
1.04612
1.02015
1.04629
1.01847
1.04858
1.02388
1.04814
1.02766
1.047
1.02104
1.03391
1.00639
1.02181
1.00394
1.01857
0.996247
1.01319
0.991937
1.00969
0.99179
1.00838
0.9897
1.01134
0.990673
1.00792
0.986046
0.998866
0.97777
0.996406
0.972675
0.989186
0.972501
0.990682
0.970922
0.99799
0.965955
0.989446
0.96586
0.991633
0.957124
1.01247
1.02511
1.01497
1.02995
1.00195
1.01293
1.0251
1.0175
1.02892
1.01069
1.03045
1.01885
1.03861
1.01562
1.03596
1.02436
1.04455
1.02626
1.0412
1.02493
1.04569
1.02231
1.04891
1.01957
1.05276
1.03408
1.04805
1.03321
1.04805
1.01798
1.03459
1.00931
1.01981
1.00141
1.02147
0.995758
1.01451
0.991421
1.00794
0.990558
1.00785
0.987703
1.01197
0.989394
1.00797
0.984634
0.998138
0.978753
0.99578
0.978017
0.988839
0.970829
0.987701
0.97093
0.996548
0.975536
0.988627
0.963919
0.989695
0.955219
1.01047
0.99389
1.03528
1.01857
1.02706
1.04081
1.02123
1.04786
0.99394
1.03589
1.014
1.04156
1.00461
1.04173
1.00717
1.03566
1.00639
1.04709
1.01468
1.04535
1.01876
1.04949
1.0189
1.04704
1.02067
1.05
1.02496
1.04803
1.02861
1.04399
1.01935
1.03241
1.00784
1.02079
1.00217
1.01841
0.994471
1.01528
0.989762
1.00689
0.988517
1.01035
0.986307
1.01257
0.98876
1.00781
0.982749
0.999742
0.977645
0.994956
0.974519
0.98706
0.974686
0.988313
0.974183
0.995034
0.962999
0.987576
0.966399
0.987592
0.953934
1.00882
1.02748
1.01947
1.03288
1.0049
1.0146
1.02754
1.01688
1.03274
1.01378
1.032
1.01669
1.03519
1.02182
1.03904
1.03072
1.04221
1.02398
1.04265
1.03001
1.04289
1.02327
1.04722
1.02342
1.0503
1.02009
1.05276
1.03489
1.05179
1.03186
1.05024
1.02019
1.03425
1.00969
1.01914
1.0005
1.01962
0.993168
1.01446
0.989499
1.00608
0.986611
1.01186
0.985578
1.01063
0.987806
1.00876
0.98104
1.00084
0.977572
0.993979
0.978991
0.98469
0.971575
0.985711
0.972421
0.994693
0.972277
0.985231
0.966312
0.985096
0.951642
1.00718
0.99471
1.03024
1.01447
1.02623
1.04704
1.0242
1.0489
1.00299
1.03818
1.01845
1.03615
1.01522
1.03313
1.00818
1.03426
1.00916
1.03709
1.01209
1.0445
1.0185
1.04627
1.01859
1.04823
1.02045
1.04717
1.02375
1.05198
1.02438
1.0515
1.02811
1.04598
1.02191
1.03323
1.0084
1.01987
0.999671
1.01875
0.992242
1.01329
0.989188
1.00697
0.98534
1.0132
0.985208
1.01122
0.986519
1.01101
0.979284
0.999839
0.975686
0.992917
0.977052
0.982584
0.974386
0.985556
0.971897
0.993683
0.964994
0.982844
0.965239
0.982159
0.948776
1.0065
1.02595
1.02207
1.03816
1.00373
1.01747
1.02762
1.01208
1.03416
1.01922
1.03859
1.01711
1.03741
1.01962
1.03659
1.02569
1.03698
1.02689
1.03962
1.02526
1.04252
1.02885
1.04556
1.02659
1.0473
1.0241
1.05086
1.02329
1.05177
1.03441
1.05263
1.03524
1.04612
1.01922
1.03449
1.00877
1.02052
0.9989
1.02049
0.991991
1.0138
0.988151
1.00878
0.984748
1.0142
0.984418
1.01
0.984905
1.01389
0.977356
1.00145
0.974921
0.991872
0.981066
0.980953
0.971596
0.982831
0.970216
0.99322
0.973374
0.9806
0.963198
0.978417
0.94459
1.0125
0.996353
1.02528
1.01714
1.02934
1.05249
1.01932
1.04361
1.00781
1.04028
1.0189
1.03681
1.01429
1.03605
1.00922
1.03631
1.01475
1.03808
1.01571
1.0384
1.01484
1.04351
1.01859
1.04781
1.0209
1.04588
1.02118
1.04711
1.02761
1.05197
1.02709
1.05159
1.02984
1.0461
1.01962
1.03426
1.00805
1.0197
0.998209
1.01787
0.992755
1.01377
0.987398
1.00906
0.984702
1.01375
0.983489
1.01203
0.983177
1.01529
0.97569
1.0037
0.973526
0.990621
0.973731
0.979705
0.970297
0.9844
0.969735
0.992452
0.966177
0.978512
0.961288
0.974085
0.940895
1.02598
1.02109
1.02126
1.03711
1.00209
1.02168
1.02349
1.00799
1.03652
1.02468
1.03575
1.01158
1.03793
1.0198
1.04299
1.017
1.03618
1.02325
1.03573
1.02449
1.03641
1.02817
1.04273
1.02434
1.04587
1.02764
1.04795
1.02612
1.04947
1.02386
1.05062
1.03357
1.05227
1.03264
1.04581
1.02009
1.03279
1.00767
1.02184
0.997855
1.01833
0.991898
1.01132
0.986534
1.00803
0.98405
1.01213
0.982801
1.01318
0.981145
1.01561
0.974438
1.00441
0.97205
0.989653
0.979959
0.97827
0.969974
0.983529
0.968943
0.991499
0.972659
0.976834
0.959227
0.970814
0.935756
1.03776
0.993225
1.02108
1.01828
1.02849
1.05299
1.01389
1.04104
1.01376
1.03977
1.01644
1.03873
1.0216
1.0375
1.01495
1.03597
1.01797
1.0366
1.01675
1.03452
1.01509
1.03495
1.01586
1.04367
1.01948
1.04779
1.02253
1.04501
1.0218
1.04507
1.02666
1.05075
1.02982
1.05096
1.02942
1.04546
1.01986
1.03426
1.0078
1.01959
0.996428
1.01701
0.991508
1.01206
0.986501
1.00811
0.985076
1.01234
0.981972
1.01393
0.979253
1.01739
0.975172
1.00481
0.971145
0.988893
0.975271
0.976431
0.969982
0.984397
0.967561
0.990769
0.965848
0.975377
0.957102
0.974209
0.928222
1.03635
1.02119
1.01706
1.02974
1.00453
1.02421
1.02077
1.0086
1.0385
1.02571
1.03194
1.01262
1.03844
1.01746
1.0398
1.01479
1.03716
1.02578
1.03918
1.02597
1.03284
1.0321
1.0393
1.02641
1.04245
1.026
1.04536
1.0286
1.04621
1.02748
1.04866
1.02677
1.04988
1.03397
1.05247
1.03201
1.04554
1.01964
1.03279
1.00929
1.02152
0.995909
1.01614
0.991441
1.01118
0.986502
1.00869
0.984136
1.01298
0.981335
1.01592
0.978048
1.01805
0.973096
1.00371
0.969968
0.989731
0.97547
0.974206
0.967786
0.983769
0.965858
0.989405
0.964843
0.974105
0.95504
0.988194
0.935544
1.0336
0.992905
1.01889
1.0073
1.02626
1.04793
1.01041
1.03751
1.01176
1.03416
1.01429
1.03983
1.01945
1.03796
1.01965
1.03775
1.02157
1.03316
1.01531
1.03819
1.02386
1.03159
1.01547
1.03881
1.01649
1.04295
1.0192
1.04616
1.02207
1.04499
1.02577
1.04578
1.02853
1.05118
1.02912
1.05104
1.02936
1.04476
1.0182
1.03369
1.00673
1.01961
0.995507
1.01521
0.990194
1.00939
0.985268
1.00764
0.982907
1.01321
0.980591
1.01635
0.977245
1.01549
0.976716
1.00241
0.968576
0.989862
0.974464
0.972556
0.967773
0.984186
0.965813
0.988322
0.965457
0.972937
0.953372
0.996083
0.949319
1.03038
1.02171
1.01432
1.03284
1.01129
1.02418
1.02193
1.0118
1.03758
1.02734
1.03373
1.01282
1.03782
1.01577
1.03346
1.02018
1.03454
1.02275
1.0362
1.02488
1.03697
1.02438
1.03372
1.02604
1.038
1.02582
1.04257
1.02824
1.04499
1.02825
1.04731
1.02792
1.04978
1.02874
1.04999
1.0348
1.05188
1.03135
1.04521
1.02029
1.03285
1.00717
1.02073
0.996187
1.0146
0.989092
1.01012
0.985054
1.00928
0.983963
1.01287
0.979614
1.01724
0.976741
1.01383
0.976713
1.00224
0.96707
0.990325
0.973195
0.972113
0.967742
0.983599
0.963964
0.98708
0.970752
0.972877
0.949975
0.997616
0.957334
1.02633
0.991474
1.01776
1.00266
1.02106
1.04004
1.00599
1.03186
1.00723
1.02967
1.01112
1.03419
1.01767
1.03401
1.02049
1.03095
1.02158
1.03382
1.0216
1.0348
1.01932
1.03711
1.02401
1.03187
1.01871
1.03699
1.01769
1.04283
1.02289
1.04571
1.02247
1.04463
1.02793
1.04485
1.02726
1.04999
1.02878
1.05163
1.02949
1.04485
1.02017
1.032
1.00568
1.01835
0.994656
1.01379
0.988243
1.00911
0.984094
1.01064
0.982476
1.01381
0.978732
1.01751
0.978881
1.01344
0.975308
1.00244
0.965844
0.990647
0.971419
0.971267
0.964296
0.983214
0.963399
0.985498
0.962436
0.972635
0.953169
0.995015
0.956388
1.02386
1.02217
1.01359
1.03675
1.01322
1.02552
1.02671
1.01527
1.03757
1.02984
1.03348
1.0116
1.03529
1.01343
1.03339
1.02108
1.03274
1.02255
1.03332
1.01752
1.03227
1.02136
1.03553
1.02635
1.03351
1.02521
1.03481
1.02625
1.04281
1.02986
1.04476
1.03024
1.04572
1.03013
1.04932
1.03046
1.05116
1.03369
1.05453
1.0294
1.04437
1.02247
1.03158
1.00749
1.0191
0.995734
1.01309
0.987035
1.00874
0.984608
1.0101
0.982299
1.01406
0.978811
1.01772
0.978308
1.01367
0.973719
1.00258
0.965399
0.990158
0.969933
0.972034
0.966223
0.982694
0.962567
0.983928
0.964438
0.971276
0.959432
0.991749
0.954366
1.02448
0.991081
1.01847
1.01108
1.01716
1.03743
1.00291
1.02822
1.00253
1.02752
1.00932
1.03204
1.01489
1.03013
1.02032
1.0327
1.02231
1.02959
1.02283
1.03253
1.02044
1.03078
1.02032
1.03383
1.02275
1.03119
1.01801
1.03122
1.01732
1.04136
1.02466
1.04383
1.02512
1.04579
1.02819
1.0451
1.02955
1.04944
1.02961
1.05311
1.02901
1.04337
1.02315
1.03119
1.00622
1.01812
0.994898
1.01258
0.98594
1.00912
0.984338
1.01172
0.981964
1.01506
0.978525
1.0153
0.977577
1.01348
0.974057
1.00198
0.964853
0.989992
0.968743
0.97324
0.963806
0.981418
0.963874
0.982744
0.962293
0.970764
0.960749
0.987442
0.949785
1.03896
1.02347
1.01397
1.03223
1.01062
1.0254
1.02899
1.01615
1.03788
1.02924
1.03144
1.01444
1.02938
1.0181
1.02889
1.01862
1.03359
1.02173
1.0351
1.02278
1.03376
1.02379
1.03389
1.02749
1.03384
1.02534
1.034
1.02291
1.04059
1.02666
1.04367
1.03012
1.04446
1.03148
1.04534
1.02802
1.04627
1.03378
1.05122
1.03266
1.0544
1.03102
1.04402
1.022
1.03021
1.00685
1.01781
0.996258
1.01275
0.985824
1.00826
0.983964
1.01227
0.983342
1.01601
0.980993
1.01637
0.977518
1.01338
0.975327
1.0006
0.963141
0.989375
0.967452
0.975727
0.963625
0.980205
0.965498
0.981245
0.962742
0.971725
0.960024
0.983934
0.942764
1.04936
0.993016
1.01633
1.01204
1.015
1.03761
1.00273
1.02741
0.999409
1.02444
1.00564
1.02515
1.01849
1.02206
1.0185
1.02577
1.0254
1.033
1.02126
1.02936
1.02247
1.03068
1.02004
1.03172
1.02042
1.03309
1.02194
1.03331
1.02039
1.03155
1.01715
1.04043
1.02488
1.04458
1.02533
1.04593
1.02904
1.0459
1.03141
1.0514
1.02926
1.05384
1.02921
1.04251
1.02298
1.0302
1.00555
1.01711
0.993277
1.01201
0.984062
1.00767
0.984266
1.01205
0.982686
1.01689
0.979005
1.01916
0.978743
1.01232
0.977042
1.00047
0.963387
0.988812
0.966136
0.976647
0.963475
0.978402
0.964875
0.980941
0.962739
0.974132
0.957859
0.988717
0.934262
1.04746
1.0214
1.01306
1.02833
1.01165
1.02342
1.02764
1.01679
1.03683
1.0295
1.02777
1.0177
1.03101
1.02419
1.03361
1.02787
1.03351
1.02185
1.03112
1.02552
1.03177
1.02341
1.03131
1.02346
1.03117
1.02173
1.03488
1.024
1.03365
1.02285
1.03963
1.02771
1.04145
1.03099
1.04415
1.03159
1.04515
1.02784
1.04323
1.03074
1.05341
1.0302
1.0529
1.03325
1.04263
1.02385
1.02952
1.00552
1.0171
0.994774
1.01303
0.98512
1.00791
0.983558
1.01353
0.985034
1.01739
0.979932
1.01902
0.978852
1.01209
0.975593
0.999678
0.963185
0.989357
0.964763
0.97616
0.964336
0.976134
0.964848
0.980257
0.960502
0.978839
0.955531
0.99849
0.947161
1.04448
0.991041
1.01812
1.00651
1.01244
1.03719
1.00211
1.02676
0.997309
1.02478
1.0015
1.02372
1.01433
1.02494
1.01804
1.02676
1.02188
1.02554
1.02343
1.02993
1.02413
1.02823
1.0211
1.03164
1.01989
1.03184
1.02052
1.03485
1.02265
1.03302
1.01803
1.03172
1.01891
1.04101
1.0227
1.04451
1.02593
1.04325
1.02927
1.04624
1.03044
1.05104
1.03198
1.05265
1.03286
1.04158
1.02186
1.03013
1.0047
1.01738
0.992848
1.01312
0.984966
1.00766
0.983251
1.01444
0.983874
1.01823
0.980421
1.01935
0.978894
1.01196
0.974509
0.998895
0.962928
0.990515
0.963607
0.976816
0.963528
0.974036
0.964399
0.979622
0.959023
0.980435
0.953675
0.997758
0.954023
1.04187
1.02277
1.01486
1.02963
1.01309
1.02488
1.02908
1.01974
1.03782
1.02595
1.0264
1.0191
1.03284
1.02258
1.0288
1.02132
1.02818
1.02497
1.03289
1.02411
1.0305
1.02521
1.03317
1.0231
1.0291
1.02041
1.03442
1.02019
1.03465
1.02316
1.03383
1.0239
1.03933
1.02265
1.0426
1.03043
1.0428
1.02845
1.04682
1.028
1.04481
1.02988
1.05443
1.03157
1.05209
1.03595
1.04194
1.023
1.0291
1.00399
1.01717
0.993189
1.01302
0.984822
1.00907
0.982775
1.01334
0.984686
1.01729
0.979499
1.01865
0.976382
1.01168
0.977125
0.997967
0.962547
0.991217
0.962563
0.977917
0.962611
0.972354
0.963315
0.979025
0.960231
0.983239
0.951422
0.995442
0.951042
1.04333
0.995203
1.01925
1.00626
1.00866
1.03577
0.999532
1.02578
0.99504
1.02089
0.999554
1.02315
1.01379
1.02771
1.01082
1.02736
1.02168
1.02654
1.02118
1.02768
1.02237
1.02883
1.02292
1.03164
1.02319
1.03005
1.01872
1.03421
1.02117
1.03326
1.02138
1.03211
1.01905
1.0309
1.02181
1.04028
1.02438
1.04425
1.02668
1.04539
1.02606
1.04744
1.03015
1.04985
1.03271
1.05134
1.033
1.0413
1.02235
1.02923
1.00376
1.01761
0.993675
1.01383
0.985157
1.01009
0.981321
1.0124
0.986245
1.01763
0.980255
1.02066
0.976939
1.0103
0.97898
0.997985
0.961831
0.990923
0.961174
0.978705
0.961596
0.97111
0.962451
0.979164
0.957897
0.982236
0.95613
0.993053
0.943836
1.05963
1.02008
1.01717
1.0261
1.01283
1.0246
1.03364
1.02089
1.03839
1.02431
1.0275
1.02503
1.0304
1.01993
1.02613
1.02372
1.03216
1.02508
1.03035
1.02466
1.03274
1.02609
1.03056
1.02426
1.03244
1.02378
1.03068
1.02039
1.03407
1.022
1.03391
1.02248
1.03315
1.02358
1.03731
1.02055
1.04204
1.02808
1.04313
1.02836
1.04573
1.02713
1.04471
1.02994
1.05419
1.03602
1.051
1.03537
1.04138
1.02329
1.02926
1.00337
1.01655
0.993649
1.01255
0.984659
1.00965
0.981894
1.01158
0.986291
1.01787
0.977392
1.01986
0.977845
1.00874
0.978296
0.99767
0.961623
0.990626
0.960917
0.979848
0.960719
0.970042
0.961221
0.977899
0.958267
0.984022
0.957869
0.991403
0.935169
1.06333
0.990382
1.02312
1.00293
1.01102
1.03121
0.996453
1.02591
0.996448
1.01885
1.00097
1.02469
1.00959
1.02566
1.01772
1.02425
1.01938
1.02635
1.02107
1.02802
1.02406
1.02683
1.0248
1.02974
1.02245
1.03056
1.02159
1.03189
1.01843
1.03493
1.02266
1.03407
1.02037
1.03126
1.01764
1.03084
1.02063
1.03764
1.0258
1.04457
1.02694
1.0446
1.02736
1.04734
1.03143
1.05046
1.03482
1.05027
1.03327
1.04036
1.02094
1.02858
1.00402
1.01686
0.993894
1.01264
0.98391
1.01033
0.982513
1.0111
0.985133
1.01775
0.978348
1.0192
0.982133
1.00782
0.977805
0.997134
0.961853
0.989828
0.960229
0.980088
0.959993
0.969249
0.959676
0.980583
0.957125
0.986387
0.956833
0.993653
0.941478
1.06075
1.0252
1.01923
1.02456
1.01596
1.02468
1.0354
1.02153
1.04087
1.02201
1.02719
1.02725
1.0353
1.02389
1.02902
1.02355
1.02925
1.02282
1.02902
1.02613
1.02846
1.02398
1.03174
1.02293
1.03219
1.02507
1.03189
1.02378
1.03272
1.02045
1.03242
1.02446
1.03516
1.02093
1.03259
1.02134
1.03671
1.0217
1.04185
1.02734
1.04365
1.02749
1.0453
1.02815
1.04503
1.03016
1.05227
1.0358
1.04985
1.03369
1.04081
1.02367
1.0283
1.00403
1.01546
0.995064
1.01211
0.984966
1.01117
0.983924
1.01095
0.984509
1.0176
0.978342
1.01793
0.980507
1.00814
0.977217
0.996468
0.962515
0.988819
0.960482
0.978371
0.95873
0.969318
0.957922
0.98111
0.955439
0.990844
0.952779
0.99218
0.95202
1.05771
0.993793
1.02474
1.00209
1.00821
1.02695
1.00208
1.02716
0.9992
1.018
1.00311
1.03053
1.00995
1.02516
1.01503
1.02656
1.01841
1.02773
1.02128
1.0279
1.02392
1.02755
1.02305
1.02821
1.02568
1.03056
1.02366
1.03203
1.02036
1.03254
1.02081
1.03357
1.02301
1.03436
1.02107
1.0313
1.01879
1.03058
1.02082
1.03812
1.02697
1.04501
1.02588
1.04334
1.02734
1.04716
1.0323
1.05057
1.03501
1.04921
1.03182
1.04015
1.02028
1.02803
1.00391
1.01546
0.993804
1.01182
0.984292
1.01052
0.985386
1.01058
0.982788
1.01866
0.977952
1.01659
0.978865
1.00744
0.978618
0.99566
0.962968
0.987196
0.960252
0.977992
0.95707
0.969596
0.955949
0.982967
0.953347
0.992419
0.955391
0.989969
0.951954
1.0563
1.02582
1.02198
1.02215
1.01551
1.02647
1.03518
1.01879
1.04103
1.01936
1.02849
1.02827
1.03609
1.0294
1.02859
1.02562
1.02554
1.01928
1.02813
1.02465
1.02933
1.02352
1.02772
1.02286
1.03091
1.02424
1.03258
1.02518
1.03217
1.02331
1.0331
1.02119
1.03199
1.0222
1.03398
1.02142
1.03101
1.01915
1.03579
1.01841
1.04138
1.02592
1.04312
1.02702
1.0445
1.02852
1.04411
1.03215