/*--------------------------------*- C++ -*----------------------------------*\
| =========                 |                                                 |
| \\      /  F ield         | OpenFOAM: The Open Source CFD Toolbox           |
|  \\    /   O peration     | Version:  2206                                  |
|   \\  /    A nd           | Website:  www.openfoam.com                      |
|    \\/     M anipulation  |                                                 |
\*---------------------------------------------------------------------------*/
FoamFile
{
    version     2.0;
    format      ascii;
    arch        "LSB;label=32;scalar=64";
    class       volSymmTensorField;
    location    "150";
    object      rhoUPrime2Mean;
}
// * * * * * * * * * * * * * * * * * * * * * * * * * * * * * * * * * * * * * //

dimensions      [2 -4 -2 0 0 0 0];

internalField   uniform (0 0 0 0 0 0);

boundaryField
{
    side1
    {
        type            empty;
    }
    side2
    {
        type            empty;
    }
    outFlow
    {
        type            calculated;
        value           uniform (0 0 0 0 0 0);
    }
    airfoil
    {
        type            calculated;
        value           uniform (0 0 0 0 0 0);
    }
    inFlow
    {
        type            calculated;
        value           uniform (0 0 0 0 0 0);
    }
}


// ************************************************************************* //
