/*--------------------------------*- C++ -*----------------------------------*\
| =========                 |                                                 |
| \\      /  F ield         | OpenFOAM: The Open Source CFD Toolbox           |
|  \\    /   O peration     | Version:  2206                                  |
|   \\  /    A nd           | Website:  www.openfoam.com                      |
|    \\/     M anipulation  |                                                 |
\*---------------------------------------------------------------------------*/
FoamFile
{
    version     2.0;
    format      ascii;
    arch        "LSB;label=32;scalar=64";
    class       volVectorField;
    location    "150";
    object      rhoUMean;
}
// * * * * * * * * * * * * * * * * * * * * * * * * * * * * * * * * * * * * * //

dimensions      [1 -2 -1 0 0 0 0];

internalField   nonuniform List<vector> 
93840
(
(1.23046 -1.04017 1.86967e-17)
(0.83825 0.211877 1.26355e-17)
(0.878708 -0.691533 1.54167e-17)
(1.02999 -0.374738 -1.18108e-17)
(0.977591 0.137753 1.07451e-17)
(0.704343 -0.370232 1.43663e-17)
(0.846343 0.219139 5.97526e-17)
(0.959336 -0.166922 -9.2431e-18)
(0.92166 0.112364 1.09461e-17)
(0.835434 -0.111735 2.26668e-17)
(0.954203 -0.162949 -2.84673e-17)
(0.853883 0.124987 8.75194e-17)
(1.03679 -0.0774863 2.4732e-17)
(0.909722 0.0485164 -2.04588e-17)
(0.833256 -0.0740135 1.40909e-18)
(0.895793 0.0893514 -1.46194e-16)
(0.926871 -0.153522 -8.9157e-17)
(0.836274 0.076465 4.6806e-17)
(1.04771 -0.0195275 2.74529e-17)
(0.860626 0.0435727 -4.51345e-17)
(0.730279 0.16735 3.77689e-18)
(0.811625 -0.0432578 -1.11541e-17)
(0.782942 0.112314 -1.50477e-16)
(0.941482 -0.0344497 -5.20481e-17)
(1.00972 0.00207238 6.71458e-17)
(0.99101 -0.0478021 8.62715e-18)
(0.976112 -0.00436859 1.2749e-18)
(0.807141 0.258013 8.2868e-18)
(0.825279 -0.00553627 5.65689e-17)
(0.854162 -0.153924 7.9913e-17)
(0.785767 0.0430038 -1.59227e-16)
(0.923996 -0.00347893 -1.04591e-16)
(0.897929 0.0481851 1.04363e-16)
(0.930787 0.0525249 -4.56881e-17)
(1.01157 0.004057 -5.30851e-18)
(0.740817 0.255787 -5.44368e-18)
(0.856601 -0.0950738 4.24113e-17)
(0.777546 0.115499 6.14167e-17)
(0.891477 -0.012757 4.8063e-19)
(0.842139 -0.018342 -1.81198e-16)
(0.857931 -0.0336928 -3.42439e-16)
(0.898955 0.00518829 -4.94099e-17)
(0.920841 0.0366359 -8.53798e-17)
(0.995607 -0.0165066 -1.86491e-18)
(0.858634 0.183841 1.74513e-17)
(0.782446 0.0490106 -5.72676e-18)
(0.867656 -0.11229 4.08627e-17)
(0.754644 0.0195584 5.94393e-17)
(0.802192 -0.0213595 5.97258e-17)
(0.780163 0.000675008 8.22443e-17)
(0.826887 0.03613 -3.29419e-17)
(0.887147 0.0208627 7.57194e-17)
(0.910533 0.0246297 -1.64888e-17)
(0.973101 0.0137365 -3.22012e-18)
(0.810621 0.255362 -6.5641e-18)
(0.877372 -0.0583849 1.21958e-16)
(0.808579 0.0936776 2.72991e-17)
(0.860807 0.00190674 6.88361e-17)
(0.738051 -0.020666 8.4686e-17)
(0.788295 -0.0464233 1.40557e-16)
(0.852849 -0.00101849 1.59788e-16)
(0.880088 0.015194 -8.73641e-17)
(0.878748 0.00941427 -1.74738e-18)
(0.914168 0.0651385 -4.49282e-17)
(0.898571 -0.0222636 -9.76059e-18)
(0.962444 -0.0744027 1.59595e-17)
(0.828441 0.0261897 -1.03767e-16)
(0.895586 -0.082645 7.26483e-17)
(0.776649 -0.0058834 -3.54139e-17)
(0.820706 -0.027606 5.03e-17)
(0.810068 -0.0119989 1.07929e-16)
(0.847626 0.0276264 -6.59367e-17)
(0.835783 0.0144788 -3.17879e-17)
(0.841893 0.0197292 -6.7863e-17)
(0.900038 0.0130276 4.05642e-17)
(0.920847 0.098724 -3.76013e-17)
(0.887412 0.0357621 -8.6062e-18)
(0.749878 0.321881 -4.17074e-18)
(0.839911 -0.031466 8.5993e-18)
(0.811129 0.0785823 -1.38524e-16)
(0.873289 0.0202675 9.31327e-17)
(0.775465 0.00819206 1.05463e-17)
(0.869055 -0.0460985 7.5312e-18)
(0.876645 0.0116102 -2.35906e-18)
(0.826249 0.0104767 9.41846e-17)
(0.857635 0.00521898 1.91452e-16)
(0.870414 0.0331006 -4.367e-17)
(0.849335 -0.00321837 -4.70477e-17)
(0.924601 0.0116173 -3.67917e-17)
(0.934531 0.0478297 -1.16699e-17)
(1.02033 -0.0490697 1.49578e-17)
(0.830725 0.0437166 -1.07258e-16)
(0.85307 -0.0717079 -4.57756e-17)
(0.789921 -0.0272209 -1.14761e-16)
(0.844653 -0.0266751 1.13773e-16)
(0.819108 -0.0128612 2.91457e-17)
(0.842226 0.0297388 3.38395e-17)
(0.82873 0.0100189 -1.76754e-17)
(0.871323 0.026143 -1.0752e-17)
(0.837237 0.0260081 -1.80795e-17)
(0.84243 0.0364778 -9.21372e-17)
(0.872092 0.02539 7.04259e-17)
(0.901695 0.0861537 -3.50307e-17)
(0.917879 0.0139585 -1.22607e-17)
(0.737026 0.297438 -1.83678e-19)
(0.860506 -0.0414056 4.54786e-17)
(0.834323 0.0714866 -6.61787e-17)
(0.870648 0.0361356 -4.83167e-17)
(0.786336 0.0340819 -2.60102e-16)
(0.851951 -0.0303643 -1.35305e-16)
(0.8443 0.0137829 -1.19208e-16)
(0.847912 0.0106483 -6.47573e-17)
(0.881296 0.0145357 -3.64006e-17)
(0.836848 0.0249856 2.31803e-17)
(0.849165 0.00839454 1.95872e-16)
(0.872652 0.0343114 5.75685e-18)
(0.855617 0.0455126 -7.07882e-17)
(0.906141 0.0187424 -5.59942e-17)
(0.926704 0.0213647 -1.4123e-17)
(1.03646 0.0408854 1.2007e-17)
(0.833978 0.0318143 8.93788e-18)
(0.873052 -0.0559139 1.79924e-16)
(0.811429 -0.0380814 -2.86722e-18)
(0.841135 -0.0196606 2.44271e-17)
(0.809014 -0.0129936 -1.33067e-16)
(0.831442 0.0191824 -6.03761e-17)
(0.845508 0.00613957 5.74535e-17)
(0.849287 0.0368464 2.22141e-17)
(0.836102 0.0219312 -1.9804e-17)
(0.875026 0.0324068 -1.03561e-17)
(0.839291 0.0334929 -3.89243e-17)
(0.845811 0.0509543 -1.3466e-16)
(0.863302 0.0359366 8.02785e-17)
(0.905047 0.0490385 -3.24563e-17)
(0.922376 0.00912655 -1.51862e-17)
(0.750661 0.243997 3.08963e-18)
(0.850539 -0.0312954 6.27227e-17)
(0.837758 0.0625287 -8.07001e-17)
(0.882799 0.0445122 3.26328e-17)
(0.793709 0.0401893 -7.27606e-17)
(0.822183 -0.0124349 9.52142e-17)
(0.818105 0.00426343 1.93647e-16)
(0.836373 0.0159973 1.85293e-16)
(0.838506 0.0238791 2.61492e-17)
(0.844975 0.020338 -5.56172e-18)
(0.872674 0.0197757 -5.90296e-17)
(0.848121 0.0270219 -1.50503e-17)
(0.852149 0.0237614 2.26854e-16)
(0.859837 0.035899 2.47141e-17)
(0.85233 0.0405276 -3.10995e-17)
(0.889958 0.0306763 -6.84732e-17)
(0.920854 0.0107169 -1.79366e-17)
(1.04078 0.0750326 8.44696e-18)
(0.837816 0.0122947 -5.34027e-17)
(0.865558 -0.0315962 3.94647e-17)
(0.830676 -0.0367829 -8.74228e-17)
(0.84837 -0.012298 -1.22925e-18)
(0.830732 -0.00836726 -7.51074e-18)
(0.837823 0.00749111 -5.9662e-17)
(0.839774 0.0148675 -1.82731e-16)
(0.833047 0.0423015 -1.2092e-16)
(0.845268 0.0182421 3.97295e-17)
(0.846428 0.0465128 3.53809e-17)
(0.83787 0.0291872 -1.95492e-17)
(0.873828 0.0442364 1.76502e-18)
(0.835601 0.0299315 -6.08705e-18)
(0.845191 0.0469232 -1.69775e-16)
(0.85998 0.0241426 8.24587e-17)
(0.903587 0.0328742 -2.76484e-17)
(0.921619 0.0116289 -1.8655e-17)
(0.758058 0.202459 4.59669e-18)
(0.865498 -0.0694606 3.92347e-17)
(0.863291 0.0485487 -8.97971e-17)
(0.884278 0.0395869 1.10466e-16)
(0.805337 0.0357328 1.64003e-16)
(0.840958 0.00215252 1.49466e-16)
(0.839422 -0.00236384 -9.59679e-17)
(0.83289 0.0164972 -9.80446e-17)
(0.824554 0.0275861 -2.54693e-17)
(0.836424 0.0255456 1.7205e-16)
(0.832845 0.0201807 8.99276e-17)
(0.843382 0.023817 -1.58374e-17)
(0.868208 0.0288508 -3.62632e-17)
(0.848909 0.0263529 -6.33607e-17)
(0.847879 0.0247415 2.12364e-16)
(0.854979 0.023318 5.99089e-17)
(0.848826 0.0309673 -2.58752e-17)
(0.890696 0.0398999 -5.47862e-17)
(0.918644 0.00697333 -1.97189e-17)
(1.0386 0.0951722 6.1824e-18)
(0.782607 0.0776321 -1.09969e-16)
(0.862333 -0.00370304 2.58268e-17)
(0.837206 -0.0311848 -1.09489e-16)
(0.861884 -0.0111293 3.34287e-17)
(0.844353 -0.00702245 7.67409e-17)
(0.835373 0.00291069 -4.52272e-17)
(0.843176 0.0160856 3.71291e-17)
(0.851707 0.0322162 -3.4706e-19)
(0.839821 0.0266832 -1.61272e-16)
(0.834915 0.034561 -1.65476e-16)
(0.839948 0.0299259 3.18234e-18)
(0.847072 0.0460205 6.70615e-17)
(0.844886 0.0295703 -5.38378e-18)
(0.87095 0.0409567 2.7442e-18)
(0.83959 0.0257212 -2.73416e-18)
(0.838296 0.0368991 -1.20528e-16)
(0.861428 0.0295131 6.2237e-17)
(0.903141 0.0334756 -4.34896e-17)
(0.922393 0.0127807 -2.04059e-17)
(0.772786 0.189157 3.52078e-18)
(0.926713 -0.0972741 2.6075e-17)
(0.864037 0.0305393 -1.88409e-17)
(0.895887 0.0338577 6.25178e-17)
(0.817899 0.0292566 -1.35532e-16)
(0.84689 0.00393223 -1.53719e-16)
(0.836912 0.000121989 1.23797e-16)
(0.855962 0.00464028 2.68551e-16)
(0.830559 0.03881 1.40626e-16)
(0.851975 0.0263617 -6.32599e-17)
(0.827255 0.0278279 -5.69305e-17)
(0.839918 0.0333935 1.51502e-16)
(0.826857 0.0239276 4.69226e-17)
(0.838936 0.0246513 3.44027e-17)
(0.862988 0.0285164 -5.48666e-17)
(0.847681 0.0259238 -6.98066e-17)
(0.843948 0.0225349 2.11804e-16)
(0.855316 0.0323054 1.15966e-17)
(0.846795 0.0403132 -5.82179e-17)
(0.892292 0.0302347 -5.35113e-17)
(0.915895 0.00794548 -2.12192e-17)
(1.0332 0.109246 8.11141e-18)
(0.7872 0.112836 2.91516e-16)
(0.85179 0.00638582 1.63854e-16)
(0.826471 -0.027895 8.52063e-17)
(0.867166 -0.0114465 1.2042e-16)
(0.853811 -0.00406239 -2.22404e-17)
(0.852817 0.00477713 -4.6418e-17)
(0.859335 0.00809291 -5.11498e-17)
(0.851766 0.0240585 -8.82126e-17)
(0.841988 0.0337262 4.70697e-17)
(0.855461 0.0271613 7.94161e-17)
(0.837471 0.0332512 -1.33099e-16)
(0.836238 0.0283003 -1.84704e-16)
(0.836403 0.032525 -4.90362e-17)
(0.844997 0.0423885 2.50877e-17)
(0.846721 0.0291897 2.81986e-17)
(0.872051 0.0407288 -4.29795e-18)
(0.845893 0.0400088 5.12288e-17)
(0.842946 0.0458898 -1.22035e-16)
(0.8646 0.026931 4.44813e-17)
(0.897638 0.0327253 -3.65091e-17)
(0.918386 0.012346 -2.20224e-17)
(0.794014 0.171701 3.19224e-18)
(0.929907 -0.0594668 -4.83936e-16)
(0.854355 0.0191376 6.13675e-17)
(0.890729 0.0350233 -5.06414e-17)
(0.818506 0.0276716 -2.30184e-16)
(0.847581 0.00051096 3.22455e-17)
(0.852853 0.00353247 1.21258e-17)
(0.857602 0.00274545 -6.18437e-17)
(0.840918 0.032295 -1.22631e-16)
(0.855806 0.0119728 1.83977e-16)
(0.831567 0.0368895 2.1652e-16)
(0.855552 0.0259674 1.762e-18)
(0.824931 0.0288064 -1.21761e-16)
(0.840839 0.0325459 1.24881e-16)
(0.826599 0.0242024 9.88153e-17)
(0.839475 0.0259394 4.39846e-17)
(0.856497 0.0325209 -3.29974e-17)
(0.853751 0.0364898 -6.21665e-17)
(0.846186 0.0292681 1.68797e-16)
(0.85354 0.0207663 4.8342e-17)
(0.842729 0.0299916 -9.54103e-18)
(0.892841 0.0270052 -5.22388e-17)
(0.910656 0.00702492 -2.25452e-17)
(1.01822 0.104235 4.11036e-18)
(0.8184 0.101195 1.78786e-16)
(0.83862 0.0101948 -5.44064e-16)
(0.834784 -0.0286731 -2.34796e-17)
(0.874498 -0.00944057 -1.15406e-17)
(0.862949 -0.00416802 -4.04877e-18)
(0.863434 0.00774758 4.12433e-17)
(0.873477 -0.000172657 -1.15828e-16)
(0.85681 0.0283802 -1.31046e-16)
(0.872191 0.0194496 -9.10972e-17)
(0.851273 0.0390018 -7.27024e-17)
(0.848881 0.031729 5.34698e-17)
(0.856399 0.0247444 2.95192e-17)
(0.840125 0.0371834 -4.12953e-17)
(0.835821 0.0265284 -1.68172e-16)
(0.835509 0.0281104 -2.61241e-17)
(0.843831 0.0437493 7.48793e-18)
(0.847957 0.0306062 1.72196e-18)
(0.867371 0.0391268 -8.15387e-18)
(0.843393 0.0291532 3.74059e-17)
(0.83979 0.0335587 -1.59341e-16)
(0.861784 0.0190046 4.14443e-17)
(0.886849 0.0452027 -1.34523e-17)
(0.912279 0.0109407 -2.2748e-17)
(0.822981 0.161373 4.47427e-18)
(0.927501 -0.0331166 1.05852e-16)
(0.862876 0.0162705 3.6191e-16)
(0.874997 0.0427955 -3.07594e-16)
(0.824859 0.0271475 2.10877e-16)
(0.859638 0.00601016 1.31023e-16)
(0.861125 0.00815911 -1.20897e-16)
(0.856745 0.00744686 -1.73181e-16)
(0.853589 0.0171538 -4.5107e-17)
(0.863101 0.0144639 -2.80327e-17)
(0.844027 0.038449 -1.81439e-16)
(0.860707 0.016471 1.64466e-16)
(0.829304 0.0342129 2.04258e-16)
(0.859483 0.025937 5.93856e-17)
(0.826085 0.0308592 -1.21662e-16)
(0.84282 0.032969 8.97282e-17)
(0.821955 0.0270707 1.0054e-16)
(0.843464 0.0277126 7.69151e-17)
(0.856906 0.0284561 -2.48971e-17)
(0.854161 0.032447 -1.08678e-16)
(0.844336 0.027939 2.15731e-16)
(0.854415 0.0193114 9.5286e-17)
(0.840436 0.037523 -5.05017e-17)
(0.895833 0.0187337 -6.76017e-17)
(0.904764 0.00721414 -2.38629e-17)
(0.930204 0.134506 4.72977e-18)
(0.827247 0.0879945 1.07034e-16)
(0.853927 0.0148062 2.11106e-17)
(0.838791 -0.0227528 2.77256e-16)
(0.88781 -0.00700372 -4.79785e-16)
(0.875028 0.00255817 -3.34395e-16)
(0.876867 0.01449 -1.73649e-16)
(0.884529 -0.000598333 -5.29536e-17)
(0.880044 0.0261454 1.19416e-16)
(0.872052 0.0216036 -3.90496e-17)
(0.858178 0.0322155 -1.04074e-16)
(0.874084 0.021977 -2.77291e-17)
(0.847268 0.045028 -8.04804e-17)
(0.854458 0.0321075 -1.4399e-17)
(0.862811 0.0219013 2.58763e-17)
(0.842643 0.0333056 -4.59321e-17)
(0.831914 0.0269673 -1.642e-16)
(0.835636 0.0441247 -1.58494e-16)
(0.844647 0.0428814 -2.44296e-17)
(0.850598 0.0360911 1.34112e-18)
(0.868559 0.0408859 2.21508e-17)
(0.849156 0.0331411 7.42502e-18)
(0.844826 0.0410958 -1.49218e-16)
(0.858725 0.0213032 5.13398e-17)
(0.886008 0.0449955 -2.36094e-17)
(0.905838 0.00832122 -2.44741e-17)
(0.921192 0.133039 5.36051e-18)
(0.909954 -0.0199028 -7.16391e-17)
(0.86221 0.0162796 1.19517e-16)
(0.862568 0.0406499 4.4702e-17)
(0.826783 0.0273018 4.78093e-16)
(0.877723 0.0132145 -2.27573e-17)
(0.858711 0.0079902 1.32475e-16)
(0.859562 0.00979714 2.74587e-16)
(0.858323 0.0128861 2.57893e-16)
(0.869786 0.00606394 -3.92032e-17)
(0.853186 0.0267677 -2.98028e-17)
(0.862756 0.0160019 4.18028e-18)
(0.854406 0.0373574 -1.57804e-16)
(0.863806 0.0185032 1.1447e-16)
(0.829127 0.0333192 2.41336e-16)
(0.864361 0.0221256 5.87492e-17)
(0.828279 0.0301194 -8.90662e-17)
(0.844346 0.0299282 9.52576e-17)
(0.822416 0.0213467 1.60386e-16)
(0.84136 0.0297828 6.72668e-17)
(0.854154 0.0331425 -1.55971e-17)
(0.85585 0.0332638 -1.23886e-16)
(0.848476 0.0336412 1.86345e-16)
(0.85496 0.0266644 5.71459e-17)
(0.840493 0.0302702 -2.41686e-17)
(0.896189 0.031433 -3.76172e-17)
(0.895712 0.00405858 -2.60066e-17)
(0.928762 0.11936 5.28553e-18)
(0.82601 0.0761244 -4.06891e-16)
(0.845834 0.0246206 -2.72947e-16)
(0.830069 -0.0178939 -2.35573e-17)
(0.875391 0.00100001 -1.77793e-17)
(0.877502 0.00654389 4.00424e-16)
(0.865694 0.0144124 4.40109e-16)
(0.865972 6.11186e-05 2.68307e-16)
(0.867504 0.016646 9.11263e-17)
(0.880665 0.0136846 -1.94951e-17)
(0.877408 0.0223201 9.51713e-17)
(0.871352 0.0350456 -1.3213e-17)
(0.865091 0.0291579 -1.19532e-16)
(0.86552 0.0300466 -1.14945e-16)
(0.849243 0.0363165 -6.20879e-17)
(0.855436 0.0325529 -5.7185e-17)
(0.864114 0.0247051 2.86161e-17)
(0.842749 0.0349635 -4.57449e-17)
(0.830758 0.0275098 -1.31441e-16)
(0.831865 0.0333865 6.65289e-18)
(0.840063 0.0364889 -2.66457e-17)
(0.852028 0.0349783 -3.09977e-17)
(0.866677 0.0418484 6.20766e-18)
(0.850302 0.0363044 2.48572e-17)
(0.849243 0.0334984 -1.16329e-16)
(0.85673 0.0289229 6.84696e-18)
(0.89375 0.0358317 -3.44559e-17)
(0.895627 0.0111835 -2.34007e-17)
(0.915968 0.120185 3.89687e-18)
(0.900576 -0.00828301 6.08306e-16)
(0.851451 0.0119703 -8.63774e-17)
(0.853263 0.0333605 -1.11473e-16)
(0.817547 0.0315859 1.77527e-16)
(0.870435 0.0168591 -1.41905e-16)
(0.834482 0.0126365 -1.96216e-16)
(0.849653 0.00611868 -3.40608e-16)
(0.858224 0.00392105 -3.21681e-16)
(0.859865 0.0169697 4.06497e-17)
(0.867253 0.0261965 2.41149e-16)
(0.861959 0.0132078 -6.48991e-17)
(0.855786 0.0303157 -8.65185e-17)
(0.858801 0.0183839 3.51287e-18)
(0.866565 0.0313956 -1.31131e-16)
(0.86509 0.0243695 5.54477e-17)
(0.83228 0.0357585 2.42559e-16)
(0.859189 0.0251736 6.07466e-17)
(0.831619 0.0330015 -1.02612e-16)
(0.846433 0.0265149 1.36006e-16)
(0.82733 0.0341737 2.6139e-17)
(0.842805 0.0403627 6.02897e-17)
(0.856116 0.0390001 -3.40873e-17)
(0.857686 0.0345745 -1.52311e-16)
(0.848617 0.0343788 1.92958e-16)
(0.85511 0.0269126 1.06816e-16)
(0.844214 0.0256288 2.66612e-17)
(0.895226 0.0183849 -6.05275e-17)
(0.8959 0.0115535 -2.4832e-17)
(0.924064 0.104754 3.47693e-18)
(0.837197 0.0641318 -2.41249e-16)
(0.846093 0.0312102 6.83419e-16)
(0.812815 -0.0159721 2.32718e-16)
(0.853927 0.010118 -8.10402e-17)
(0.867811 0.00841687 -4.12304e-17)
(0.848086 0.0112547 7.26792e-17)
(0.857595 -0.00478171 5.35275e-17)
(0.862805 0.0117521 1.97283e-16)
(0.880951 0.0105866 3.55087e-16)
(0.866035 0.0144581 1.72526e-16)
(0.879005 0.0262337 1.51148e-17)
(0.879848 0.0165384 1.69042e-16)
(0.871389 0.0379114 4.18109e-18)
(0.863513 0.0305137 -1.49668e-16)
(0.869361 0.033499 -1.33368e-16)
(0.852153 0.0303302 -5.28555e-17)
(0.856847 0.0353022 -8.72041e-17)
(0.862277 0.0245855 3.40608e-17)
(0.846549 0.0373915 4.83302e-17)
(0.831848 0.0305727 -1.39299e-16)
(0.82869 0.0371112 1.40905e-17)
(0.837558 0.0359903 1.94015e-18)
(0.853131 0.0332261 -4.43541e-17)
(0.862604 0.0376047 2.57374e-17)
(0.85444 0.03391 2.02763e-17)
(0.851494 0.0340773 -1.71672e-16)
(0.84778 0.0231764 -3.62129e-18)
(0.888688 0.035687 -3.79152e-17)
(0.896857 0.0127329 -2.46194e-17)
(0.919752 0.108495 5.84418e-18)
(0.895993 -0.0012859 -3.90227e-17)
(0.851507 0.0064145 -6.38256e-16)
(0.84394 0.0294991 2.54377e-16)
(0.799658 0.0321546 -3.44621e-16)
(0.854487 0.0173251 -4.3066e-16)
(0.812738 0.00888594 -5.33203e-16)
(0.841438 0.000462443 -4.59821e-16)
(0.843329 0.00156987 -3.77963e-16)
(0.844961 0.0118615 -3.92978e-16)
(0.853048 0.0180516 -3.97702e-16)
(0.856672 0.00833786 -8.23507e-17)
(0.870603 0.031858 2.38337e-16)
(0.863362 0.0177853 -4.51004e-17)
(0.860704 0.0403307 -4.04768e-17)
(0.856351 0.0202568 2.11202e-17)
(0.86804 0.0347303 -1.17686e-16)
(0.865639 0.0257691 2.83107e-17)
(0.833067 0.0361419 2.72023e-16)
(0.856038 0.0254097 9.03736e-17)
(0.82828 0.0364551 -1.17525e-16)
(0.845498 0.0244486 1.37337e-16)
(0.827434 0.0370693 9.89965e-18)
(0.838348 0.0363329 6.50977e-17)
(0.856883 0.0371176 -1.72936e-17)
(0.856672 0.0368623 -1.28644e-16)
(0.848016 0.034086 1.70666e-16)
(0.852462 0.023231 1.22468e-16)
(0.847469 0.0208244 -1.78074e-18)
(0.895965 0.0263398 -3.5897e-17)
(0.89727 0.013393 -2.35957e-17)
(0.934572 0.105929 6.50392e-18)
(0.84643 0.0509968 1.88025e-16)
(0.848348 0.026724 2.80662e-16)
(0.797967 -0.0155791 -5.80375e-16)
(0.824062 0.0172562 6.58345e-16)
(0.836951 0.0151971 5.24495e-16)
(0.828789 0.0101119 4.3149e-16)
(0.838929 0.0011659 4.67992e-16)
(0.841914 0.0146397 3.88491e-16)
(0.8613 0.00843756 2.06132e-16)
(0.85517 0.0146325 2.17572e-16)
(0.880754 0.0147876 3.39045e-16)
(0.863058 0.0169619 8.89823e-17)
(0.875076 0.0296138 6.50764e-18)
(0.878503 0.0176527 1.71391e-16)
(0.869946 0.0353996 3.98717e-18)
(0.867163 0.0333599 -1.36157e-16)
(0.872022 0.0318405 -1.28189e-16)
(0.854272 0.0280291 -5.37835e-17)
(0.857378 0.0385509 -5.78522e-17)
(0.863668 0.0257518 5.35922e-17)
(0.844666 0.0391677 -1.24973e-17)
(0.83017 0.0321528 -1.77323e-16)
(0.828335 0.0371259 -1.82699e-18)
(0.833284 0.0396134 -3.30011e-18)
(0.854204 0.0347202 -3.66881e-17)
(0.86136 0.0347703 -3.48929e-18)
(0.852651 0.0367561 5.89165e-17)
(0.85374 0.0330512 -1.24611e-16)
(0.85029 0.0323652 1.1294e-17)
(0.883653 0.0319533 -2.563e-17)
(0.896234 0.012128 -2.59672e-17)
(0.932431 0.111183 8.82644e-18)
(0.889099 -8.63155e-06 -5.26177e-16)
(0.858814 -0.00216465 -8.64094e-17)
(0.84753 0.028846 3.61953e-16)
(0.782876 0.0272215 -5.36367e-16)
(0.839362 0.0172039 2.15272e-16)
(0.806673 0.00581358 8.5341e-17)
(0.819372 0.00452579 1.4888e-16)
(0.8234 0.00457153 -1.67403e-16)
(0.823329 0.00365106 -3.50442e-16)
(0.84085 0.0114315 -3.42622e-16)
(0.847211 0.0118481 -2.87622e-16)
(0.853687 0.0183185 -3.12648e-16)
(0.859045 0.013402 1.88527e-17)
(0.868912 0.036699 2.09136e-16)
(0.86148 0.0192495 -6.08874e-17)
(0.865315 0.043493 -1.43875e-17)
(0.858479 0.0185497 1.09286e-17)
(0.866132 0.0357494 -1.15313e-16)
(0.862794 0.0268998 1.64066e-17)
(0.834713 0.0381767 2.78313e-16)
(0.855447 0.0249479 1.08738e-16)
(0.832652 0.0380301 -1.30781e-16)
(0.842942 0.0242599 1.52087e-16)
(0.828757 0.0372216 9.70537e-18)
(0.839604 0.0358697 4.99345e-17)
(0.853892 0.0409106 -1.92856e-17)
(0.85858 0.0368305 -1.50939e-16)
(0.848465 0.0365627 1.86114e-16)
(0.853878 0.0273 1.06749e-16)
(0.84675 0.0289236 1.79187e-17)
(0.899143 0.0240565 -3.75831e-17)
(0.887575 0.0120862 -2.63926e-17)
(0.937221 0.0884164 1.91372e-18)
(0.83483 0.0388077 2.70226e-16)
(0.846021 0.0239752 -5.42977e-16)
(0.817043 -0.00763714 -1.48291e-16)
(0.813052 0.0248492 2.08528e-16)
(0.816625 0.0261006 -7.62548e-16)
(0.824996 0.0113246 -7.28511e-16)
(0.819707 0.00399906 -4.53033e-16)
(0.826248 0.0206113 -3.2168e-16)
(0.839221 0.00183343 8.90609e-17)
(0.836001 0.00763463 4.04837e-16)
(0.858889 0.0126201 2.32206e-16)
(0.855248 0.00881101 -6.65657e-17)
(0.878164 0.0143994 2.88098e-16)
(0.860955 0.0142628 2.51712e-17)
(0.875994 0.0322731 -4.90704e-18)
(0.873505 0.0267614 1.59408e-16)
(0.867683 0.0322074 1.48962e-17)
(0.868179 0.035351 -1.20122e-16)
(0.876389 0.028403 -1.43008e-16)
(0.852867 0.0247538 -8.98377e-17)
(0.857172 0.038123 -4.11093e-17)
(0.862914 0.0266253 5.21719e-17)
(0.844051 0.0443134 6.33027e-17)
(0.82843 0.0355158 -1.77428e-16)
(0.830268 0.038869 9.84749e-18)
(0.833179 0.0383872 7.49022e-21)
(0.855943 0.0423259 -3.82928e-17)
(0.859078 0.0338249 3.90639e-17)
(0.857291 0.038929 1.98528e-17)
(0.851166 0.0347619 -1.67424e-16)
(0.849325 0.0297421 -1.22897e-17)
(0.884082 0.0342201 -2.75914e-17)
(0.880723 0.0152311 -2.76518e-17)
(0.931725 0.0973787 5.66289e-18)
(0.878667 -0.00262962 -6.13175e-17)
(0.841722 -0.0109647 5.24414e-16)
(0.848038 0.0303674 -3.55627e-16)
(0.791314 0.0219392 2.04202e-16)
(0.83287 0.0177018 7.4201e-16)
(0.810001 0.0013351 7.23384e-16)
(0.811538 0.00404811 6.26111e-16)
(0.811529 0.0141375 5.47844e-16)
(0.815227 0.00329321 6.01792e-16)
(0.828925 0.0034963 1.38577e-16)
(0.820567 0.00854789 -3.72128e-16)
(0.836389 0.00899424 -3.58629e-16)
(0.850013 0.00978539 -7.58535e-17)
(0.84517 0.0187902 -5.42808e-16)
(0.862031 0.0125999 9.44918e-18)
(0.869609 0.0366635 1.97492e-16)
(0.866187 0.0193255 -7.80357e-17)
(0.868 0.0422911 -4.13906e-17)
(0.859729 0.0176781 1.7924e-18)
(0.867358 0.0365839 -1.45686e-16)
(0.859009 0.0293359 2.5254e-18)
(0.836004 0.0430455 2.45633e-16)
(0.85459 0.0253964 9.45769e-17)
(0.832708 0.0385802 -1.35438e-16)
(0.83879 0.0238585 8.23554e-17)
(0.827904 0.0404668 2.12207e-17)
(0.83756 0.0374408 5.20196e-17)
(0.852138 0.0388631 1.05316e-17)
(0.859477 0.0368622 -1.46257e-16)
(0.849889 0.0417387 1.65122e-16)
(0.854085 0.0266065 1.30288e-16)
(0.845353 0.0293088 2.50341e-17)
(0.895877 0.0261435 -4.64363e-17)
(0.882133 0.0208663 -2.82856e-17)
(0.938266 0.0798191 -9.11406e-19)
(0.833933 0.0309323 9.98475e-17)
(0.841211 0.0259745 -1.10618e-16)
(0.812747 0.000763877 5.02726e-16)
(0.815178 0.0272596 -8.21299e-16)
(0.804351 0.0296663 -4.72827e-16)
(0.817746 0.00920092 -3.9485e-19)
(0.811203 0.00847083 -1.2085e-16)
(0.829678 0.0234859 -2.79526e-16)
(0.820759 0.00331819 -3.09422e-16)
(0.830353 0.0119772 -4.06782e-16)
(0.840577 0.00651542 -1.87732e-17)
(0.838176 0.00682883 2.42716e-16)
(0.853173 0.0165281 1.98671e-16)
(0.853298 0.00870844 -9.10763e-17)
(0.874541 0.019034 5.85159e-17)
(0.858713 0.0150987 1.91071e-17)
(0.872845 0.0305711 4.89684e-17)
(0.874737 0.0261481 1.93199e-16)
(0.86659 0.0315206 6.41676e-19)
(0.869343 0.0359748 -1.26486e-16)
(0.880879 0.0298844 -8.70372e-17)
(0.857568 0.0251129 -9.56758e-17)
(0.857652 0.0362076 -9.50015e-17)
(0.863292 0.0251475 6.8167e-17)
(0.843333 0.0467611 6.39202e-17)
(0.827881 0.037909 -1.43074e-16)
(0.828523 0.040854 1.21107e-17)
(0.831058 0.038874 -6.43528e-18)
(0.85435 0.0432113 -4.3829e-17)
(0.860855 0.0347146 4.6479e-19)
(0.85635 0.033802 9.21089e-17)
(0.851697 0.032548 -1.58232e-16)
(0.85034 0.0360022 -6.79855e-18)
(0.886872 0.0287634 -2.84666e-17)
(0.879078 0.0244171 -2.80454e-17)
(0.92953 0.0858906 1.03892e-17)
(0.862507 -0.00371166 1.81223e-16)
(0.83946 -0.0160528 2.93593e-16)
(0.854985 0.032523 -8.21595e-17)
(0.79648 0.0171195 5.21291e-16)
(0.817843 0.0156031 -3.21432e-16)
(0.801204 0.00285639 -3.81312e-16)
(0.801975 8.31416e-05 -2.72114e-16)
(0.806369 0.0221 -1.25116e-16)
(0.800839 -0.00322733 1.70262e-16)
(0.824119 0.0166578 3.9622e-16)
(0.822838 0.0030142 5.92719e-16)
(0.827445 0.0136513 1.54658e-16)
(0.823677 0.0109514 -1.88549e-17)
(0.832787 0.0096698 -2.33066e-16)
(0.853542 0.00956852 -9.59426e-17)
(0.858048 0.0221017 -6.03486e-17)
(0.858057 0.019062 2.28322e-17)
(0.866401 0.0362145 1.59629e-16)
(0.864259 0.0219948 -4.35046e-17)
(0.869649 0.0396558 -6.42839e-17)
(0.860391 0.0188514 6.95232e-18)
(0.862948 0.0364004 -1.49898e-16)
(0.856591 0.0278301 2.6919e-17)
(0.839226 0.0485775 2.17819e-16)
(0.856477 0.024356 8.25025e-17)
(0.830675 0.0391615 -1.38129e-16)
(0.837145 0.0247751 4.34778e-17)
(0.826443 0.0370845 5.22293e-18)
(0.838243 0.0364806 4.51701e-17)
(0.85284 0.0415257 1.50123e-17)
(0.8583 0.0341839 -1.7301e-16)
(0.852149 0.044635 1.44027e-16)
(0.853732 0.0256346 1.58098e-16)
(0.847399 0.0297589 2.37602e-17)
(0.891044 0.0315793 -4.04325e-17)
(0.87889 0.027196 -2.70612e-17)
(0.938355 0.0746234 3.40276e-18)
(0.830054 0.0240254 -1.63963e-17)
(0.833077 0.0254295 -7.41231e-18)
(0.813643 0.0131883 1.86736e-16)
(0.803172 0.0273342 5.404e-17)
(0.796841 0.0326255 7.35552e-16)
(0.814444 0.00680894 5.31101e-16)
(0.814175 0.0129192 4.29951e-17)
(0.843825 0.0192464 2.9231e-17)
(0.817038 0.0143389 1.00752e-16)
(0.824355 0.0232686 -1.48933e-16)
(0.825261 0.0109644 -3.26249e-16)
(0.835027 0.0150659 -3.94914e-16)
(0.839925 0.00842705 -2.09762e-17)
(0.832211 0.00922846 2.76567e-17)
(0.85378 0.0208636 1.51413e-16)
(0.854189 0.0104899 -1.21501e-16)
(0.86385 0.0224006 -4.58186e-17)
(0.858755 0.0175211 2.36983e-17)
(0.871315 0.0326889 3.79308e-17)
(0.874941 0.0279124 1.27318e-16)
(0.868232 0.0317899 7.48281e-17)
(0.870155 0.0344695 -1.04998e-16)
(0.881317 0.03004 -1.12033e-16)
(0.859707 0.0267922 -4.14969e-17)
(0.849991 0.0356522 -2.06488e-17)
(0.863357 0.0226541 6.96776e-17)
(0.843164 0.0439501 2.14043e-18)
(0.828381 0.0336242 -1.28424e-16)
(0.829819 0.0422089 -8.68314e-19)
(0.828809 0.0368321 -3.41785e-18)
(0.854998 0.0465307 -4.40988e-17)
(0.861005 0.0374048 7.7563e-18)
(0.85853 0.034568 9.92855e-17)
(0.847505 0.0333957 -1.42895e-16)
(0.849705 0.0363802 5.72012e-18)
(0.885544 0.0292693 -3.38586e-17)
(0.87914 0.0291511 -2.82809e-17)
(0.935898 0.0812413 8.83969e-18)
(0.869127 -0.00319983 -3.51275e-16)
(0.845326 -0.0199768 -2.18497e-16)
(0.876164 0.0321485 -3.71508e-16)
(0.817464 0.0113346 3.86275e-17)
(0.829363 0.0200608 -8.09758e-17)
(0.815135 0.00747961 5.89338e-17)
(0.824842 -0.000706143 1.04079e-16)
(0.829625 0.0186962 2.42614e-17)
(0.802825 0.00399393 -7.7349e-17)
(0.820077 0.0174148 -1.52912e-16)
(0.802247 -0.000970546 4.09663e-17)
(0.823639 0.0169742 3.40927e-16)
(0.826127 0.00832001 4.26979e-16)
(0.826865 0.0124528 9.61693e-17)
(0.833276 0.0115578 3.06282e-17)
(0.833242 0.0158603 -3.49255e-16)
(0.852984 0.00891465 -1.21721e-16)
(0.861582 0.0235134 -9.73386e-17)
(0.859877 0.0181729 1.86837e-17)
(0.866581 0.0329226 1.51181e-16)
(0.865322 0.0255114 -2.59898e-17)
(0.871791 0.0350681 -8.84458e-17)
(0.858187 0.0205422 7.39467e-18)
(0.864321 0.0380628 -1.67548e-16)
(0.861353 0.0259577 -2.30632e-17)
(0.839669 0.0517758 2.38661e-16)
(0.859477 0.0255284 8.45065e-17)
(0.832823 0.0380657 -1.45262e-16)
(0.833333 0.0280548 -3.41493e-18)
(0.826988 0.0383984 2.77863e-17)
(0.836811 0.0366071 2.55779e-17)
(0.852802 0.0405798 2.82674e-17)
(0.856951 0.0323677 -1.5082e-16)
(0.85318 0.0451832 1.33566e-16)
(0.849629 0.0291081 1.21816e-16)
(0.850367 0.0384131 1.05156e-17)
(0.887604 0.0289211 -3.61724e-17)
(0.878499 0.0314776 -2.93697e-17)
(0.935433 0.0672586 3.99149e-18)
(0.834812 0.0179697 1.12195e-16)
(0.841678 0.0283516 -2.28197e-16)
(0.833917 0.026048 -1.11206e-16)
(0.810424 0.0278026 7.4432e-17)
(0.818837 0.0306432 1.09498e-16)
(0.833978 0.00832811 -4.91747e-16)
(0.844589 0.0115259 -4.47318e-16)
(0.856034 0.0242357 -1.83298e-16)
(0.855332 0.00255013 -1.50459e-16)
(0.838911 0.0130966 -5.60137e-17)
(0.819963 0.0119576 1.00549e-16)
(0.833155 0.0130242 -3.9497e-17)
(0.82573 0.00969964 -3.24039e-16)
(0.835962 0.0127859 -6.31025e-17)
(0.838655 0.0147037 -7.48744e-18)
(0.83437 0.0107741 1.91347e-17)
(0.853943 0.0192159 1.44127e-16)
(0.854518 0.0138177 -5.27936e-17)
(0.862136 0.0260048 -1.3903e-16)
(0.86139 0.0168079 3.8388e-18)
(0.869106 0.0319059 1.07537e-16)
(0.875126 0.0273809 1.20523e-16)
(0.866642 0.0310342 8.80971e-17)
(0.867187 0.025733 -4.70032e-17)
(0.875239 0.031957 -1.00352e-16)
(0.859796 0.0274182 -1.16949e-17)
(0.852399 0.0337251 -9.18889e-17)
(0.863097 0.0241364 9.43766e-17)
(0.845535 0.0440711 -1.13585e-17)
(0.827172 0.0311371 -9.3105e-17)
(0.829721 0.0454538 2.31429e-17)
(0.828074 0.0381394 8.4311e-18)
(0.854825 0.0501941 -3.16115e-17)
(0.860345 0.0391136 -5.0609e-17)
(0.85989 0.0364189 6.5027e-17)
(0.846311 0.0394436 -2.10252e-16)
(0.851936 0.0397093 8.61245e-18)
(0.887906 0.0354514 -2.75008e-17)
(0.878141 0.0343399 -3.54561e-17)
(0.936051 0.0697565 1.2205e-18)
(0.866913 -0.000175611 -2.10249e-16)
(0.856429 -0.021491 1.80013e-20)
(0.887414 0.0291982 -3.35393e-17)
(0.828596 0.00473669 3.20217e-18)
(0.842886 0.0170932 -4.87254e-16)
(0.847328 0.00175065 -2.89435e-16)
(0.857285 0.00514745 -1.7262e-16)
(0.854258 0.0244712 -8.55247e-17)
(0.84568 0.0051694 1.40459e-17)
(0.836073 0.0290752 1.84916e-17)
(0.813455 0.0094948 -4.41408e-17)
(0.81927 0.0207446 -1.4873e-16)
(0.806689 0.00656429 -5.20188e-17)
(0.821458 0.0225313 2.95216e-16)
(0.833624 0.0131794 3.23216e-16)
(0.828149 0.00997687 9.9667e-17)
(0.836449 0.0121109 4.4599e-17)
(0.83251 0.0199253 -1.18226e-16)
(0.852157 0.0116792 -8.54632e-17)
(0.861613 0.025822 -9.46509e-17)
(0.859623 0.0190348 -7.10127e-18)
(0.86794 0.031676 1.16668e-16)
(0.866482 0.0265397 6.74661e-18)
(0.870037 0.0331751 -9.94461e-17)
(0.866645 0.0253466 -4.01672e-17)
(0.867536 0.0349119 -1.1172e-16)
(0.8619 0.0267443 -6.2226e-17)
(0.838422 0.0521929 2.17281e-16)
(0.862431 0.0269326 1.01839e-16)
(0.835066 0.0396879 -9.00379e-17)
(0.833526 0.0288345 -1.96454e-17)
(0.826935 0.0400986 1.76481e-17)
(0.837343 0.0349726 5.26876e-17)
(0.852471 0.0386332 2.63842e-17)
(0.856891 0.0350161 -1.37893e-16)
(0.851871 0.0454539 1.45297e-16)
(0.848236 0.0312756 1.26137e-16)
(0.851457 0.0418676 8.32302e-18)
(0.885485 0.0335328 -3.60922e-17)
(0.878097 0.0372896 -3.00003e-17)
(0.938777 0.0554968 1.125e-17)
(0.836846 0.0136217 -1.01255e-17)
(0.849222 0.0278021 -2.1711e-16)
(0.846986 0.0323362 -8.60926e-17)
(0.820243 0.0259185 -4.61166e-16)
(0.840809 0.0338274 -2.68184e-16)
(0.855997 0.0133508 -1.15091e-16)
(0.889464 0.0114649 3.59216e-16)
(0.865326 0.0302027 3.80542e-16)
(0.885511 0.00198231 5.10334e-17)
(0.862375 0.0215235 -1.16663e-16)