/*--------------------------------*- C++ -*----------------------------------*\
| =========                 |                                                 |
| \\      /  F ield         | OpenFOAM: The Open Source CFD Toolbox           |
|  \\    /   O peration     | Version:  2206                                  |
|   \\  /    A nd           | Website:  www.openfoam.com                      |
|    \\/     M anipulation  |                                                 |
\*---------------------------------------------------------------------------*/
FoamFile
{
    version     2.0;
    format      ascii;
    arch        "LSB;label=32;scalar=64";
    class       volScalarField;
    location    "150";
    object      TMean;
}
// * * * * * * * * * * * * * * * * * * * * * * * * * * * * * * * * * * * * * //

dimensions      [0 0 0 1 0 0 0];

internalField   nonuniform List<scalar> 
93840
(
1.08883
0.964536
1.11946
1.03479
0.870928
1.16173
0.946868
1.05911
0.929385
1.13366
1.02224
0.921697
1.00578
1.05574
1.00987
1.01447
1.0591
0.974478
0.933994
1.03117
1.01195
1.01624
0.959951
1.00336
0.96287
1.01171
0.995343
0.905188
1.01283
1.07325
1.01556
0.955984
1.00041
0.978852
0.973239
0.889354
1.03565
0.966651
1.01745
1.01895
1.01953
1.01808
0.989701
0.980108
0.907518
0.992421
1.06403
1.03398
0.985268
1.02658
0.995222
0.996863
0.979164
0.9599
0.905733
1.03065
0.991166
1.01105
1.03603
1.02035
1.02489
0.987124
0.996804
0.969251
0.99671
0.907517
1.0089
1.04452
1.0379
0.991046
1.0154
0.998489
0.989117
0.992436
0.983808
0.96045
1.00058
0.978724
1.03006
0.997834
1.00187
1.02726
1.0064
1.02163
1.00193
1.01143
0.98004
1.01519
0.972008
0.994618
0.910449
1.00772
1.04534
1.04171
1.0006
1.02314
1.00543
0.994554
0.989234
0.984101
0.995133
0.9891
0.978528
0.991525
0.9735
1.03147
0.999332
0.999771
1.02545
1.00886
1.03118
0.997848
1.00845
0.995913
1.01776
0.981835
1.01668
0.974488
0.992397
0.935084
1.00745
1.03457
1.04026
1.01023
1.03138
1.0108
0.997081
1.00202
0.990496
0.989986
0.987474
0.997285
0.989646
0.986232
0.989726
0.944386
1.01616
1.00683
0.993774
1.02708
1.01266
1.03245
1.00118
1.01553
0.999124
1.00728
0.988679
1.01462
0.982198
1.01871
0.98181
0.987024
0.960441
1.00324
1.02903
1.03905
1.00996
1.03127
1.01018
1.01046
1.00261
1.00551
1.00224
0.995574
0.990178
0.992065
1.00037
0.993528
0.986725
0.985891
0.930782
1.02087
1.01321
0.996332
1.02582
1.01104
1.02348
1.00951
1.00628
1.00318
1.00993
0.998606
1.00673
0.988444
1.01366
0.985536
1.01666
0.979474
0.985619
0.970678
0.977715
1.01822
1.0348
1.00726
1.02962
1.01334
1.01088
0.995422
1.0129
1.00242
1.00768
0.99907
0.996069
0.9935
0.991875
1.00065
0.996183
0.98223
0.987241
0.928983
1.04115
1.02125
0.99502
1.02499
1.01225
1.02267
1.0099
1.00774
1.00166
1.005
1.00264
1.01083
0.998773
1.00892
0.98944
1.01807
0.98164
1.01222
0.980723
0.986872
0.971667
0.985066
1.00809
1.03386
1.00626
1.02644
1.01485
1.00977
0.999704
1.00463
1.00007
1.01038
0.999568
1.00913
0.997703
0.997116
0.994294
0.989423
0.996527
0.994569
0.981856
0.98807
0.935024
1.0401
1.0221
0.993393
1.02312
1.01103
1.02037
1.00678
1.00888
0.998663
1.00319
0.999671
1.00766
1.00281
1.00985
0.998566
1.00933
0.986133
1.01329
0.982808
1.01163
0.982869
0.988131
0.974365
0.996056
1.00754
1.03341
1.00539
1.02127
1.01162
1.0088
1.01059
1.00478
1.001
1.00203
0.997352
1.00765
1.0014
1.00926
0.998492
0.997137
0.994102
0.99363
0.997031
0.999697
0.985271
0.988945
0.939053
1.03358
1.01855
0.994158
1.02003
1.00557
1.02067
1.00424
1.0181
0.993756
1.01129
0.998345
1.0029
0.996564
1.00312
1.0026
1.0109
0.995506
1.00382
0.983335
1.01771
0.985678
1.00864
0.983435
0.987456
0.942804
1.00391
1.00333
1.03351
1.00167
1.01856
1.00835
1.01112
1.00932
1.00991
1.00782
0.998038
1.00211
1.00123
0.993542
1.00447
1.00312
1.01034
0.998106
0.996946
0.993745
0.989289
0.995447
1.00045
0.981925
0.985843
0.941182
1.03014
1.02073
0.99745
1.02034
1.00343
1.01905
1.00283
1.0095
0.996795
1.01035
0.991355
1.00342
0.992261
1.0024
0.997139
1.00169
1.00234
1.00885
0.995642
1.00166
0.98208
1.01544
0.98543
1.0016
0.981316
0.992027
0.946022
1.00889
1.00434
1.03182
1.00601
1.01823
1.01227
1.01916
1.01303
1.0055
1.00618
1.00742
1.00656
0.999987
1.00358
0.995431
0.994975
1.00549
0.999348
1.00873
0.997251
0.999016
0.992372
0.99019
0.99453
1.00094
0.98098
0.990523
0.951042
1.02611
1.02339
0.99873
1.02529
1.00508
1.02656
1.01151
1.01247
1.00418
1.00888
1.00138
1.00631
0.993951
0.998064
0.991578
1.00148
0.99808
1.00128
0.998818
1.00764
0.995746
0.998701
0.982206
1.0134
0.986217
0.999487
0.979368
0.98966
0.9504
1.0109
1.0028
1.03229
1.01019
1.01934
1.01561
1.0213
1.01755
1.00936
1.0106
1.0027
1.00594
1.00326
1.00789
0.996031
1.00672
0.996292
0.997915
1.00413
1.00123
1.00702
0.999207
0.998819
0.993775
0.99056
0.995604
1.00134
0.980282
0.989677
0.944135
1.01986
1.0205
0.999563
1.03047
1.00636
1.0299
1.01503
1.01743
1.01332
1.00684
1.00907
1.00542
1.00129
1.00166
0.996236
0.996088
0.991943
1.00179
0.998199
1.00295
0.999572
1.00659
0.998183
0.997873
0.983547
1.01331
0.986361
1.00156
0.979657
0.990731
0.941189
1.01133
0.999577
1.03119
1.01359
1.02007
1.01727
1.0245
1.02538
1.01501
1.01819
1.00936
1.00855
1.00763
1.00353
0.999781
1.00684
0.993909
1.00944
0.99799
0.998112
1.00378
1.00305
1.0061
1.00026
0.99985
0.996091
0.992329
0.99466
0.999539
0.97637
0.992733
0.93996
1.01407
1.01656
1.00287
1.03685
1.0112
1.0311
1.02127
1.02237
1.02117
1.01189
1.01173
1.00584
1.00783
1.00422
1.00236
0.999742
0.996938
0.997965
0.995255
1.00219
0.998812
1.00193
1.00145
1.00588
0.999604
1.00171
0.983512
1.01232
0.988091
0.998303
0.977533
0.993716
0.944445
1.01201
0.995685
1.02832
1.01274
1.02311
1.01409
1.02709
1.02555
1.02148
1.02277
1.01155
1.01307
1.01117
1.00516
1.00666
1.00435
0.996821
1.00718
0.992451
1.00598
0.998209
1.00017
1.00042
1.00477
1.00468
0.99999
0.999583
0.997622
0.98924
0.998239
1.00226
0.978761
0.994493
0.948944
1.01195
1.0168
1.00734
1.03788
1.01436
1.02852
1.02368
1.02118
1.02819
1.01452
1.01936
1.01118
1.01136
1.00769
1.00331
1.00393
1.00274
0.998673
0.996898
0.99809
0.997335
1.00263
0.998945
1.00342
1.00411
1.00485
1.00152
1.00252
0.984158
1.00769
0.98776
0.997251
0.978935
0.995535
0.954548
1.01076
0.994843
1.02627
1.00902
1.0243
1.01472
1.02743
1.02038
1.02973
1.02186
1.02006
1.01972
1.01295
1.01057
1.01124
1.00485
1.00549
1.00582
0.997311
1.00742
0.991016
1.00516
0.995139
1.00283
0.999315
1.00648
1.00636
1.00055
1.00022
0.995974
0.993145
0.999849
0.999303
0.980293
0.994283
0.956235
1.01026
1.01561
1.0109
1.03759
1.01913
1.02719
1.03004
1.01515
1.0329
1.00988
1.02184
1.0143
1.01596
1.01436
1.00979
1.0092
1.00553
1.00332
1.00377
0.999957
0.99853
0.998668
0.997795
1.00235
0.998804
1.00351
1.00483
1.00502
1.00208
1.00129
0.986817
1.00349
0.988857
0.996982
0.983985
0.992797
0.955397
1.01034
0.991531
1.02361
1.00712
1.02294
1.01732
1.02661
1.01458
1.02806
1.02246
1.02586
1.02044
1.01844
1.01649
1.01617
1.00915
1.00922
1.00371
1.00528
1.00305
0.995587
1.00641
0.991057
0.99849
0.999298
1.00114
0.999686
1.00706
1.00435
1.00185
1.00009
0.996407
0.991951
1.00136
0.997789
0.984009
0.992194
0.954594
1.00625
1.01509
1.0105
1.03388
1.01819
1.02301
1.02583
1.01268
1.02745
1.01235
1.02907
1.01361
1.01904
1.01764
1.01499
1.01341
1.0077
1.00935
1.00312
1.00315
1.00378
1.00108
1.00035
1.00097
0.9982
1.00398
0.999312
1.0019
1.00585
1.00501
1.00105
1.0007
0.988537
1.00088
0.993687
0.997114
0.985044
0.991706
0.958403
1.00887
0.987169
1.02009
1.0042
1.0173
1.01161
1.02325
1.01324
1.01832
1.01721
1.02619
1.022
1.02592
1.01708
1.01955
1.01252
1.0176
1.00729
1.00882
1.00224
1.00337
1.00561
0.995868
1.0026
0.997211
0.99994
0.997229
1.00252
0.998966
1.00624
1.00511
1.00092
0.999307
0.998477
0.99215
1.00272
0.996187
0.987333
0.991069
0.957007
1.00284
1.0113
1.01014
1.02639
1.01424
1.01554
1.01703
1.01015
1.01479
1.01535
1.02279
1.01495
1.0198
1.0168
1.01609
1.01731
1.0109
1.01304
1.00664
1.00816
1.00314
1.00355
1.0041
1.00254
1.0017
0.997334
0.998961
1.00134
0.997887
0.999049
1.00486
1.00559
1.00181
1.00024
0.988657
1.00321
0.996631
0.995228
0.988767
0.990238
0.959919
1.00886
0.984225
1.01631
0.99882
1.011
1.00788
1.01459
1.01462
1.00474
1.01876
1.01152
1.01981
1.02443
1.01956
1.02602
1.01321
1.01938
1.00985
1.01361
1.00679
1.00702
1.0018
1.0021
1.00476
1.00091
1.00119
0.997009
0.999125
1.00043
1.00276
0.99941
1.00532
1.00498
1.00021
0.998019
1.00231
0.985271
1.00162
0.993545
0.986348
0.989588
0.958884
0.999568
1.00963
1.00999
1.0209
1.01194
1.0102
1.01186
1.01284
1.01037
1.00458
1.01303
1.01673
1.01811
1.0167
1.0196
1.01557
1.01557
1.01553
1.0091
1.0141
1.0065
1.00643
1.00306
1.00279
1.00318
1.00128
1.00028
0.9987
0.998543
1.00051
0.99702
1.00136
1.00446
1.00353
1.00235
0.999904
0.986791
1.00497
0.994724
0.992024
0.989051
0.988909
0.958882
1.00955
0.981373
1.01448
0.992434
1.0078
1.00769
1.00862
1.01592
1.00156
1.01627
1.00187
1.01642
1.01167
1.01665
1.0243
1.01663
1.02012
1.01422
1.01968
1.01017
1.01365
1.00533
1.00544
1.00339
0.999978
1.00293
0.999941
0.999678
0.99698
0.998125
0.99734
1.0004
1.00051
1.00477
1.00502
1.00027
0.99691
1.00604
0.986748
1.00148
0.991358
0.985821
0.987847
0.95612
0.998006
1.01127
1.00849
1.01648
1.01156
1.01322
1.01115
1.00785
1.01283
1.00662
1.00842
1.00683
1.01064
1.01229
1.01599
1.01584
1.01884
1.01608
1.0112
1.01255
1.00986
1.01331
1.00588
1.00468
1.00343
1.00217
1.00365
1.00038
0.998696
0.998897
0.997694
1.00069
0.998308
1.00007
1.00342
1.00247
1.0047
0.998685
0.986645
1.00504
0.995382
0.992564
0.985187
0.98676
0.957385
1.01005
0.980916
1.01392
0.990677
1.00689
1.00825
1.00744
1.01449
1.00601
1.01822
0.999887
1.01497
1.00337
1.01514
1.01041
1.01466
1.02192
1.01564
1.01912
1.01337
1.01824
1.00996
1.01307
1.00509
1.00655
1.00266
1.00172
1.00184
1.00101
0.998216
0.997155
0.997769
0.997936
0.998458
0.999715
1.00358
1.00254
1.00147
0.995174
1.00762
0.986708
1.00439
0.994381
0.984763
0.985966
0.954677
0.996253
1.01603
1.01254
1.01505
1.01301
1.0159
1.0156
1.0037
1.01617
1.00851
1.01269
1.00477
1.00995
1.00726
1.01051
1.01152
1.01593
1.01516
1.01936
1.01731
1.01012
1.01441
1.00808
1.01301
1.00445
1.00563
1.00324
1.00183
1.00169
0.999807
0.997363
0.999386
0.996892
1.00174
0.998588
1.00026
1.00426
1.00165
1.00422
0.998253
0.986803
1.00413
0.990198
0.993984
0.98456
0.98575
0.954239
1.01235
0.979289
1.01129
0.988846
1.00666
1.01146
1.01648
1.00877
1.01091
1.02014
1.00465
1.0135
1.00441
1.01591
1.00281
1.01523
1.01012
1.01516
1.02057
1.01507
1.01961
1.01175
1.01376
1.00912
1.01315
1.00422
1.00602
1.00188
1.00157
1.00088
1.00105
0.996154
0.996296
0.995946
0.999623
0.99753
1.00058
1.00338
1.00247
1.00167
0.996782
1.00556
0.988856
1.00497
0.993335
0.986903
0.98573
0.953419
0.99532
1.02106
1.01557
1.01821
1.01424
1.01566
1.02347
1.00049
1.02259
1.00731
1.01562
1.00764
1.01211
1.00771
1.0097
1.01025
1.00798
1.01299
1.01569
1.0147
1.01759
1.01614
1.01054
1.01472
1.00858
1.01383
1.00492
1.0053
1.00372
1.00329
1.0001
1.00091
0.995217
1.00041
0.995231
0.999263
0.997548
1.00092
1.00347
1.00114
1.00368
0.999134
0.98778
1.00446
0.993136
0.992789
0.989345
0.985354
0.957064
1.01275
0.980913
1.01107
0.991322
1.00725
1.01197
1.02391
1.0139
1.01493
1.02474
1.01054
1.01854
1.00895
1.01499
1.00376
1.00992
1.00169
1.01574
1.01013
1.01434
1.01847
1.01382
1.01793
1.00949
1.01518
1.00774
1.01292
1.00473
1.00569
1.00144
1.0008
0.999374
1.00065
0.994701
0.99603
0.994435
0.997625
0.997002
0.99925
1.00196
1.00349
1.00134
0.997907
1.00391
0.989421
1.00481
0.993696
0.990211
0.986568
0.955867
0.995406
1.02187
1.01448
1.01888
1.01497
1.01337
1.03059
1.00538
1.02193
1.01104
1.02155
1.00755
1.01554
1.00822
1.013
1.0097
1.01031
1.00953
1.00928
1.01337
1.01295
1.01496
1.01651
1.0148
1.00815
1.01514
1.00704
1.01327
1.00456
1.00464
1.00468
1.00457
0.999133
0.99896
0.99403
0.999656
0.994243
1.00121
0.995715
1.00076
1.00221
1.00164
1.00351
1.00051
0.988118
1.00104
0.984791
0.9913
0.989933
0.987919
0.960964
1.01332
0.985863
1.0128
0.994978
1.00614
1.01025
1.02864
1.02138
1.01236
1.02726
1.01686
1.02301
1.00831
1.02
1.01071
1.01495
1.00694
1.01562
1.00145
1.01021
1.01109
1.01369
1.01676
1.013
1.01968
1.00937
1.01522
1.00627
1.01353
1.00451
1.00416
1.00055
1.00039
0.999093
1.00048
0.994736
0.997058
0.994347
0.999715
0.995996
0.999753
1.00123
1.00195
1.00098
0.998892
1.00167
0.991439
1.00877
0.994368
0.989097
0.987636
0.959536
0.995116
1.02102
1.01085
1.01674
1.01138
1.01043
1.03268
1.01442
1.01943
1.01686
1.0231
1.01714
1.02198
1.00847
1.0152
1.01134
1.01275
1.00678
1.01142
1.01181
1.00978
1.01294
1.01395
1.01513
1.01436
1.01575
1.00721
1.01465
1.00551
1.01327
1.00559
1.00338
1.00445
1.00287
0.998535
0.998784
0.994587
0.997228
0.994371
0.999436
0.995734
1.00147
1.00082
1.00197
1.0019
1.00144
0.98949
0.996513
0.987989
0.99585
0.988129
0.987349
0.961741
1.0153
0.992663
1.01124
0.997612
1.00602
1.00793
1.02659
1.02954
1.01118
1.02744
1.0151
1.02763
1.01179
1.02622
1.00997
1.02117
1.01142
1.01567
1.00546
1.01634
1.00406
1.01021
1.01237
1.0132
1.01759
1.01334
1.01933
1.00912
1.01472
1.00592
1.01265
1.00512
1.00406
1.00029
1.00073
0.997938
0.997799
0.994826
0.996397
0.994249
0.999451
0.995074
0.999664
1.00062
1.0038
1.00118
0.99901
1.00069
0.993965
1.0075
0.997684
0.987543
0.987206
0.96199
0.995899
1.01959
1.00797
1.01407
1.01109
1.00523
1.02852
1.0199
1.01935
1.01936
1.02123
1.01668
1.02507
1.01889
1.02128
1.01062
1.01467
1.01047
1.01385
1.00679
1.00986
1.00645
1.00933
1.0129
1.01224
1.01501
1.01312
1.01633
1.00656
1.01462
1.00588
1.01198
1.00539
1.00349
1.0049
1.0013
0.998107
0.997452
0.994214
0.996215
0.994051
1.00143
0.994144
1.00071
0.999882
1.0041
1.00089
1.0022
0.990139
0.997031
0.990203
0.994171
0.987096
0.986188
0.965245
1.01431
0.995546
1.01215
0.996592
1.00522
1.00585
1.02181
1.03111
1.01028
1.02803
1.00993
1.0268
1.01349
1.03012
1.01044
1.02259
1.0155
1.01975
1.01112
1.01528
1.00368
1.01604
1.00711
1.00891
1.0118
1.01194
1.01465
1.01251
1.018
1.00719
1.01411
1.00578
1.01129
1.00543
1.00426
0.999735
0.999925
0.997807
0.996928
0.994206
0.995173
0.993734
0.99782
0.993591
1.00219
0.999244
1.0036
1.00058
0.999023
0.995651
0.991429
1.00443
0.995989
0.98655
0.985368
0.968466
0.995001
1.01723
1.0033
1.01127
1.01221
1.00429
1.02163
1.02089
1.01755
1.01911
1.01935
1.01649
1.02375
1.01746
1.0248
1.01997
1.02216
1.01203
1.01694
1.01017
1.01337
1.00886
1.01182
1.01018
1.00993
1.01119
1.0121
1.01567
1.01272
1.0163
1.00661
1.01358
1.00579
1.01066
1.00542
1.0042
1.0022
1.0024
0.997444
0.996494
0.993103
0.995239
0.992891
1.00151
0.994417
1.00003
0.998834
1.00352
1.00002
1.00251
0.993405
0.998611
0.991971
0.994068
0.986079
0.984575
0.970973
1.01288
0.998227
1.00943
0.99478
1.0043
1.00221
1.01283
1.03152
1.00978
1.02693
1.00877
1.02684
1.0101
1.02774
1.01557
1.02646
1.01694
1.02169
1.01318
1.01928
1.01094
1.01585
1.00592
1.01331
1.00707
1.00991
1.00971
1.01173
1.01293
1.01201
1.01708
1.00796
1.01307
1.00593
1.01087
1.00474
1.00505
1.00049
0.999583
0.997995
0.996071
0.992818
0.99472
0.992772
0.998062
0.993498
1.00127
0.998189
1.0059
0.999257
0.999071
0.993467
0.992812
0.996266
0.997115
0.985563
0.983856
0.971051
0.994182
1.01383
1.00172
1.00753
1.00807
1.00015
1.01394
1.01761
1.01792
1.02171
1.0196
1.0147
1.02087
1.01743
1.02497
1.01778
1.02651
1.02256
1.024
1.01305
1.01904
1.00941
1.01445
1.00958
1.01294
1.00873
1.00966
1.01043
1.01162
1.01521
1.01225
1.01536
1.00592
1.0127
1.00641
1.01073
1.00388
1.00478
1.0008
0.999059
0.997527
0.995747
0.992639
0.994479
0.993042
0.999816
0.993382
1.00267
0.997371
1.00411
0.999281
1.00156
0.992788
0.999202
0.995392
0.992906
0.985106
0.983078
0.971999
1.01237
0.999289
1.00853
0.992598
1.00139
1.00093
1.00558
1.02744
1.01231
1.02619
1.01147
1.02599
1.0109
1.02154
1.01591
1.02749
1.0191
1.02617
1.01824
1.0221
1.01331
1.02015
1.00958
1.01539
1.00868
1.01161
1.00693
1.01038
1.00906
1.01121
1.01452
1.0113
1.01671
1.00654
1.01248
1.00639
1.01047
1.00322
1.00537
1.00086
0.99876
0.997784
0.995082
0.99229
0.99419
0.993415
0.998865
0.993336
0.999262
0.997167
1.00594
0.99902
1.00088
0.992399
0.994856
0.995269
0.995385
0.984501
0.982286
0.970741
0.993488
1.01242
0.997992
1.00437
1.0087
1.00242
1.01041
1.01181
1.01708
1.02012
1.02026
1.01667
1.02041
1.01584
1.02116
1.01686
1.02581
1.02052
1.0268
1.02081
1.02485
1.01225
1.01917
1.01161
1.01493
1.01075
1.0129
1.00666
1.01329
1.00912
1.01046
1.01513
1.01144
1.01461
1.00505
1.0122
1.00494
1.01133
1.00258
1.00545
1.00129
0.998251
0.998596
0.994736
0.991668
0.993609
0.993639
0.999399
0.993146
1.00293
0.996713
1.00435
0.998653
1.00095
0.992169
0.998948
0.994504
0.994427
0.983809
0.981733
0.969926
1.01166
1.00166
1.00932
0.991255
0.999346
1.0022
1.00024
1.02025
1.01135
1.02161
1.01752
1.02119
1.0142
1.02106
1.01709
1.02299
1.01729
1.02753
1.02153
1.02713
1.01786
1.02551
1.01467
1.02154
1.01065
1.01697
1.00833
1.01311
1.00781
1.00911
1.00924
1.01065
1.01414
1.01176
1.01511
1.00662
1.01199
1.00625
1.01081
1.00209
1.00502
1.00145
0.997728
0.998088
0.994315
0.992437
0.992865
0.9947
0.998763
0.992631
1.00086
0.996076
1.00658
0.997806
1.00039
0.991996
0.99398
0.993424
0.995134
0.982958
0.981175
0.968945
0.993322
1.00995
0.994845
1.00066
1.00715
1.00123
1.00705
1.00668
1.01365
1.01763
1.02176
1.01702
1.01843
1.01573
1.01885
1.01543
1.02216
1.01764
1.02468
1.01954
1.02744
1.02137
1.02333
1.013
1.01858
1.01213
1.01499
1.01063
1.01374
1.00634
1.011
1.00863
1.01025
1.0144
1.01075
1.0145
1.0049
1.01208
1.00667
1.00943
1.00295
1.00441
1.00206
0.997286
0.997367
0.993491
0.992592
0.992135
0.994616
0.999031
0.991771
1.00303
0.995548
1.00475
0.997502
1.0018
0.991861
0.999612
0.992397
0.994649
0.981925
0.980266
0.968812
1.01148
1.00211
1.01093
0.9905
0.997259
1.00211
0.997508
1.01645
1.01112
1.02032
1.02003
1.02091
1.01835
1.02028
1.01699
1.02032
1.01724
1.02228
1.01912
1.02677
1.0238
1.02742
1.01778
1.02426
1.01574
1.02164
1.0116
1.0175
1.00859
1.01354
1.00745
1.01096
1.00908
1.01015
1.01265
1.01139
1.01402
1.00596
1.01191
1.00558
1.00979
1.00338
1.00364
1.00286
0.997193
0.997789
0.992288
0.993558
0.991364
0.995609
0.997972
0.990961
0.999635
0.995056
1.00626
0.996605
0.999711
0.992106
0.996799
0.991379
0.994508
0.980274
0.978935
0.970202
0.994241
1.00896
0.996643
0.999592
1.00675
1.00096
1.00843
1.00591
1.01208
1.01578
1.0215
1.01534
1.02035
1.0132
1.01877
1.01766
1.02113
1.01852
1.02299
1.01758
1.02578
1.01783
1.02755
1.02297
1.02366
1.01291
1.01937
1.01234
1.01511
1.01096
1.01357
1.00656
1.00955
1.00782
1.01042
1.01339
1.01117
1.01334
1.00527
1.01129
1.00491
1.00871
1.00257
1.00281
1.00309
0.997097
0.997751
0.991116
0.994548
0.990669
0.995429
0.997085
0.990751
1.00555
0.994732
1.00549
0.996759
1.00084
0.991622
0.999039
0.990385
0.993801
0.978558
0.977262
0.975163
1.01004
1.00265
1.01045
0.988682
0.996071
1.00216
0.999997
1.01415
1.00981
1.01954
1.01676
1.02068
1.01937
1.02184
1.01624
1.02077
1.01698
1.02018
1.01796
1.02215
1.02107
1.02698
1.0236
1.02779
1.01931
1.02426
1.01612
1.02134
1.01187
1.01661
1.01119
1.0144
1.00737
1.01205
1.00867
1.00962
1.01316
1.01101
1.01272
1.00548
1.01135
1.00658
1.00945
1.00287
1.00216
1.00279
0.996719
0.998415
0.990481
0.99516
0.990292
0.996605
0.996375
0.990879
0.998719
0.994364
1.00566
0.996665
0.999044
0.991641
0.996103
0.989357
0.993016
0.977587
0.975062
0.979912
0.993051
1.00756
0.997114
1.00017
1.0063
1.00093
1.01078
1.00506
1.0106
1.01558
1.0205
1.0167
1.02051
1.01425
1.02084
1.01409
1.0186
1.01735
1.02068
1.01808
1.02164
1.01712
1.02692
1.0187
1.02729
1.023
1.02345
1.01471
1.01947
1.01438
1.0156
1.01117
1.01411
1.00644
1.00993
1.0079
1.01012
1.01418
1.01068
1.01237
1.00554
1.01191
1.00494
1.00855
1.003
1.00239
1.00355
0.996483
0.99908
0.99009
0.995747
0.990185
0.99584
0.99589
0.990366
1.00239
0.99414
1.00403
0.997225
1.00009
0.991025
0.998532
0.988449
0.992511
0.978385
0.973245
0.979497
1.01
1.00211
1.00817
0.990623
0.998015
1.00239
1.00245
1.01304
1.0111
1.02162
1.01396
1.02182
1.01774
1.02138
1.01699
1.02073
1.01984
1.02158
1.01813
1.02032
1.02137
1.02249
1.0214
1.02667
1.02363
1.027
1.0193
1.02389
1.01749
1.02086
1.01201
1.01658
1.01027
1.01314
1.0069
1.01156
1.00793
1.00947
1.01224
1.01113
1.01265
1.00544
1.01111
1.00529
1.00838
1.00398
1.00233
1.00336
0.996203
0.999063
0.989506
0.995263
0.989343
0.996256
0.995473
0.989816
1.00129
0.993854
1.00596
0.996953
0.999117
0.990672
0.99939
0.987852
0.991667
0.983817
0.975334
0.97768
0.992599
1.00722
0.994254
0.999588
1.00482
0.999553
1.012
1.00424
1.01133
1.01672
1.01982
1.01567
1.01989
1.01431
1.01964
1.01625
1.0187
1.01433
1.02024
1.01917
1.01996
1.01836
1.02318
1.01776
1.02681
1.02025
1.02652
1.02363
1.02335
1.01585
1.01898
1.01343
1.01551
1.01264
1.01333
1.00678
1.0103
1.0073
1.0101
1.01404
1.01012
1.01189
1.00528
1.01119
1.00548
1.00812
1.005
1.00211
1.00318
0.995943
1.00047
0.989019
0.99543
0.990765
0.995777
0.995193
0.990239
1.00103
0.993397
1.00486
0.996925
0.999938
0.990443
0.995848
0.987282
0.990782
0.987118
0.98074
0.976022
1.01105
1.00099
1.01022
0.993251
0.999277
1.0024
1.00635
1.01381
1.01379
1.02194
1.01482
1.02055
1.01546
1.01855
1.01822
1.01946
1.01787
1.02008
1.02013
1.02101
1.01915
1.02084
1.01917
1.02279
1.02166
1.02693
1.02353
1.02725
1.02001
1.02332
1.01885
1.02074
1.01318
1.01654
1.0105
1.01383
1.00594
1.01118
1.00754
1.00957
1.01258
1.01071
1.01183
1.00517
1.01124
1.00465
1.0077
1.00407
1.00169
1.00336
0.995747
0.999641
0.989253
0.994998
0.990616
0.995313
0.994999
0.991334
1.00065
0.99283
1.00399
0.996396
0.999385
0.990031
0.993785
0.986723
0.988876
0.987762
0.984499
0.974857
0.993319
1.00786
0.995
0.998995
1.00312
0.996991
1.01214
1.0047
1.01243
1.01669
1.0196
1.01507
1.0179
1.01482
1.01838
1.01429
1.01861
1.01728
1.01947
1.01608
1.02087
1.0195
1.02061
1.01899
1.02257
1.01839
1.02662
1.02137
1.02588
1.02366
1.02332
1.01648
1.01932
1.01459
1.01552
1.01036
1.01363
1.00569
1.01044
1.00779
1.01014
1.01424
1.01093
1.01199
1.00489
1.01081
1.00475
1.00762
1.00389
1.0012
1.00337
0.995403
0.999864
0.991096
0.994813
0.990246
0.995578
0.994771
0.990891
1.00027
0.991693
1.0056
0.996266
0.999376
0.989361
0.996962
0.986325
0.990737
0.987005
0.985091
0.974222
1.01216
1.00242
1.0119
0.995701
0.999113
1.00255
1.00728
1.0143
1.01568
1.02308
1.01599
1.01903
1.01499
1.01792
1.01698
1.01793
1.01931
1.0187
1.01636
1.01894
1.01851
1.02081
1.02032
1.02092
1.01968
1.02197
1.02253
1.02661
1.02288
1.02826
1.02008
1.02299
1.01944
1.02135
1.01282
1.01685
1.01159
1.01326
1.0064
1.01065
1.00849
1.00972
1.01256
1.00979
1.01201
1.00554
1.0104
1.00526
1.00765
1.0056
1.00216
1.00343
0.995091
1.00016
0.990468
0.994817
0.98962
0.995439
0.994466
0.990895
1.00006
0.992288
1.00242
0.995317
0.998924
0.988559
0.995503
0.985276
0.993618
0.985329
0.984404
0.973271
0.994246
1.00844
0.997435
0.999094
1.00252
0.995264
1.01153
1.00431
1.01458
1.01643
1.01974
1.01329
1.01832
1.0139
1.01795
1.0149
1.01764
1.01523
1.01872
1.01564
1.01888
1.01327
1.02039
1.01935
1.01997
1.0184
1.0212
1.01829
1.02587
1.0214
1.02555
1.02241
1.0228
1.01663
1.01829
1.01437
1.01554
1.01113
1.0136
1.00524
1.01057
1.0078
1.00963
1.01433
1.01
1.0115
1.00503
1.00997
1.0044
1.00767
1.00497
1.00189
1.00459
0.994915
0.999644
0.990003
0.995083
0.988941
0.995324
0.99439
0.9907
0.999729
0.992998
1.00331
0.995692
0.999629
0.98809
0.995812
0.985219
0.994489
0.983775
0.982833
0.978512
1.01296
1.00287
1.01039
0.996592
0.999003
1.00306
1.00772
1.01619
1.01768
1.02355
1.01622
1.01799
1.01772
1.01789
1.01754
1.01809
1.01626
1.01873
1.01838
1.01964
1.01753
1.01976
1.02082
1.02015
1.02017
1.02154
1.01891
1.02391
1.02327
1.02714
1.02627
1.02666
1.02153
1.02272
1.01997
1.01945
1.0148
1.01709
1.00977
1.01393
1.00508
1.01021
1.00834
1.00919
1.01247
1.00959
1.01172
1.00489
1.00978
1.00443
1.00773
1.0058
1.00153
1.00428
0.996537
0.999979
0.98921
0.994996
0.990124
0.994844
0.99421
0.989893
0.999261
0.992903
1.00221
0.995188
0.999511
0.987519
0.994151
0.985561
0.994238
0.982912
0.979464
0.982496
0.995087
1.00878
0.998975
1.0002
1.00299
0.994556
1.01045
1.00475
1.01486
1.01601
1.02139
1.01633
1.0173
1.01446
1.01772
1.01424
1.01803
1.01329
1.0176
1.01523
1.01812
1.01752
1.01952
1.01752
1.02037
1.01909
1.02076
1.01915
1.02155
1.01861
1.02604
1.02062
1.02575
1.02263
1.02369
1.01623
1.01973
1.0151
1.01585
1.01044
1.01294
1.0072
1.01042
1.00826
1.00936
1.01326
1.00987
1.01111
1.00558
1.00926
1.00447
1.00709
1.00657
1.00023
1.00452
0.995354
1.00067
0.99079
0.994702
0.98985
0.994574
0.993862
0.989903
0.998725
0.992708
1.00242
0.994265
1.00021
0.98786
0.992897
0.986231
0.99354
0.984028
0.976747
0.982204
1.01226
1.00211
1.00977
0.996652
0.99857
1.00262
1.00716
1.01695
1.01837
1.02354
1.01961
1.01961
1.01977
1.01886
1.0188
1.01908
1.01902
1.01759
1.01527
1.01717
1.01852
1.01934
1.01884
1.01916
1.018
1.02079
1.01964
1.02059
1.01958
1.02391
1.02404
1.02609
1.0253
1.02764
1.02205
1.02312
1.02155
1.01895
1.01479
1.01782
1.01032
1.01374
1.0062
1.01023
1.00852
1.009
1.01187
1.01014
1.01078
1.00536
1.00892
1.00353
1.00698
1.00584
1.0017
1.00464
0.995133
1.00117
0.990616
0.994429
0.990184
0.994464
0.994088
0.990477
0.998147
0.993668
1.00248
0.993209
0.999908
0.987868
0.993453
0.987702
0.992305
0.987836
0.982549
0.980871
0.994201
1.00924
0.996657
0.999238
1.00175
0.992749
1.0078
1.00394
1.01558
1.01499
1.02019
1.01579
1.0191
1.01718
1.01993
1.01746
1.01755
1.01281
1.01711
1.01586
1.01772
1.01432
1.01915
1.01765
1.01969
1.01776
1.02085
1.01926
1.02139
1.01841
1.02185
1.01965
1.02623
1.02167
1.02563
1.0221
1.02315
1.01629
1.01988
1.01404
1.01697
1.00986
1.01263
1.00757
1.01
1.00757
1.00921
1.01255
1.00991
1.01032
1.00565
1.00898
1.00427
1.00656
1.00535
1.00154
1.00412
0.995206
1.00115
0.990957
0.994371
0.989541
0.994213
0.994236
0.990323
0.997531
0.991933
1.00227
0.992262
0.999299
0.986846
0.99374
0.98927
0.991081
0.98803
0.982943
0.979676
1.01274
1.0027
1.00975
0.999356
0.997117
1.0015
1.00532
1.01735
1.01894
1.02329
1.01842
1.02211
1.02093
1.02113
1.02009
1.01878
1.01792
1.01803
1.01904
1.01713
1.01598
1.01732
1.02038
1.01856
1.01762
1.02016
1.01758
1.02062
1.01935
1.02062
1.02038
1.02401
1.02091
1.02646
1.02411
1.02719
1.02159
1.02253
1.01811
1.01931
1.01343
1.01728
1.01236
1.01258
1.00705
1.00979
1.00786
1.00897
1.01155
1.0099
1.0102
1.00639
1.00897
1.00372
1.00619
1.00629
1.00256
1.00417
0.994941
1.00069
0.990069
0.994233
0.99089
0.993669
0.993702
0.989739
0.996858
0.991544
1.002
0.991452
0.998816
0.986474
0.991509
0.988791
0.989805
0.986779
0.982617
0.979008
0.99543
1.00938
0.996899
0.999783
0.999672
0.991097
1.00513
1.00346
1.01575
1.01192
1.01896
1.01685
1.0189
1.01471
1.01912
1.01746
1.01848
1.01767
1.01882
1.01257
1.0163
1.01493
1.01968
1.01391
1.01911
1.01735
1.02101
1.01811
1.02103
1.01869
1.02151
1.01901
1.02208
1.02141
1.02625
1.02233
1.02573
1.02157
1.02367
1.01701
1.01976
1.01478
1.01693
1.00968
1.01226
1.00827
1.00954
1.00787
1.00861
1.01163
1.00974
1.00974
1.0053
1.00884
1.00373
1.00751
1.00595
1.00221
1.00396
0.994652
1.00113
0.990167
0.994109
0.991704
0.993474
0.99274
0.990012
0.996046
0.99321
1.00162
0.990887
0.998147
0.985909
0.99297
0.989714
0.991843
0.985667
0.981188
0.985972
1.01155
1.00279
1.00856
0.999741
0.996552
1.00363
1.00393
1.01762
1.01919
1.02097
1.01971
1.02361
1.01814
1.0204
1.02158
1.02244
1.02078
1.01939
1.01709
1.01792
1.01582
1.01706
1.01533
1.01733
1.0202
1.01994
1.01687
1.02053
1.01793
1.02026
1.01958
1.0209
1.02051
1.02379
1.02157
1.0266
1.02433
1.02673
1.02131
1.02388
1.0187
1.01973
1.01338
1.01753
1.01219
1.01195
1.00711
1.00922
1.0071
1.00813
1.01111
1.00958
1.01004
1.00641
1.00813
1.00551
1.00697
1.00574
1.00125
1.00369
0.993947
1.00065
0.990996
0.993608
0.990999
0.993226
0.992514
0.989852
0.995966
0.993724
1.00131
0.990634
0.997508
0.987012
0.991749
0.989466
0.992003
0.98547
0.978861
0.986725
0.994119
1.00974
0.996462
1.00064
0.998039
0.989537
1.00283
1.00233
1.01619
1.01081
1.01901
1.0153
1.01877
1.01846
1.02007
1.01793
1.01874
1.01679
1.01894
1.01809
1.01893
1.01641
1.01722
1.01529
1.01919
1.01565
1.01984
1.01698
1.02083
1.01944
1.02084
1.01834
1.02093
1.01911
1.02214
1.02023
1.02513
1.02183
1.02626
1.02054
1.02325
1.01739
1.02021
1.01296
1.01601
1.0105
1.01165
1.00745
1.00884
1.00826
1.00859
1.01107
1.00916
1.00971
1.00593
1.00838
1.00516
1.00788
1.00532
1.00149
1.00326
0.994637
1.00067
0.991824
0.993208
0.991065
0.993177
0.992414
0.989539
0.995616
0.992332
1.00098
0.990253
0.99683
0.986489
0.991433
0.991442
0.991236
0.987175
0.978651
0.985798
1.0136
1.00421
1.00845
0.999807
0.996532
1.00311
1.00148
1.01633
1.0191
1.02005
1.01923
1.02257
1.0178
1.02289
1.01915
1.02033
1.02046
1.01994
1.01898
1.01877
1.01766
1.01752
1.01523
1.01763
1.01604
1.01815
1.01872
1.02029
1.01772
1.02087
1.01871
1.02117
1.01832
1.02104
1.01951
1.02371
1.02107
1.02651
1.0246
1.02738
1.02118
1.02303
1.01896
1.01869
1.01441
1.01741
1.01364
1.01146
1.00748
1.00914
1.00586
1.00765
1.01139
1.00911
1.00976
1.00608
1.00804
1.00512
1.00802
1.00469
1.00139
1.00386
0.994432
1.00022
0.990506
0.993585
0.990726
0.993065
0.992406
0.98924
0.995403
0.992594
1.00058
0.989953
0.995989
0.987708
0.990934
0.992819
0.990083
0.986535
0.984375
0.984478
0.995677
1.01065
0.995027
0.998969
0.996339
0.990552
1.00119
1.00201
1.01828
1.01103
1.01952
1.01301
1.0183
1.01747
1.01715
1.01915
1.02205
1.01916
1.02036
1.01984
1.01868
1.01718
1.01949
1.01649
1.01756
1.01552
1.01915
1.01593
1.02013
1.01751
1.02009
1.01889
1.02144
1.01849
1.02083
1.01935
1.02222
1.02075
1.0255
1.02086
1.02577
1.0215
1.02303
1.01768
1.02067
1.01334
1.01528
1.01161
1.01154
1.00733
1.00834
1.00805
1.00793
1.01217
1.00879
1.00979
1.00582
1.00804
1.00569
1.0074
1.00419
1.00138
1.00419
0.994618
0.999753
0.990967
0.993637
0.991759
0.992798
0.992277
0.989061
0.995357
0.991813
1.00005
0.990277
0.995181
0.987943
0.990072
0.99367
0.990717
0.986058
0.984704
0.983801
1.01446
1.00537
1.00763
1.00008
0.99702
1.00196
0.998239
1.01439
1.01949
1.0188
1.01801
1.02143
1.02011
1.02059
1.01758
1.02216
1.01736
1.02094
1.02009
1.02062
1.01934
1.0188
1.017
1.01719
1.01594
1.01813
1.01729
1.01847
1.01831
1.02022
1.0189
1.02092
1.01911
1.02112
1.01943
1.02084
1.01927
1.02391
1.02051
1.02597
1.02574
1.02742
1.02068
1.02369
1.01791
1.01914
1.01453
1.01754
1.01168
1.01128
1.00703
1.00883
1.00604
1.00715
1.01146
1.0086
1.00936
1.00644
1.00941
1.00535
1.0086
1.00511
1.00147