/*--------------------------------*- C++ -*----------------------------------*\
| =========                 |                                                 |
| \\      /  F ield         | OpenFOAM: The Open Source CFD Toolbox           |
|  \\    /   O peration     | Version:  2206                                  |
|   \\  /    A nd           | Website:  www.openfoam.com                      |
|    \\/     M anipulation  |                                                 |
\*---------------------------------------------------------------------------*/
FoamFile
{
    version     2.0;
    format      ascii;
    arch        "LSB;label=32;scalar=64";
    class       volVectorField;
    location    "150";
    object      UMean;
}
// * * * * * * * * * * * * * * * * * * * * * * * * * * * * * * * * * * * * * //

dimensions      [0 1 -1 0 0 0 0];

internalField   nonuniform List<vector> 
93840
(
(0.722617 -0.610865 1.09801e-17)
(0.992729 0.250923 1.49641e-17)
(0.599873 -0.472094 1.05246e-17)
(0.815709 -0.296778 -9.3537e-18)
(1.10741 0.156046 1.2172e-17)
(0.58001 -0.304877 1.18303e-17)
(0.943172 0.244211 6.65889e-17)
(0.778215 -0.135408 -7.49802e-18)
(0.961017 0.117162 1.14135e-17)
(0.812821 -0.108711 2.20532e-17)
(0.839566 -0.143372 -2.50473e-17)
(0.996838 0.145912 1.02172e-16)
(0.872417 -0.0652016 2.0811e-17)
(0.907314 0.0483879 -2.04046e-17)
(0.773437 -0.0687001 1.30793e-18)
(0.885767 0.0883513 -1.44558e-16)
(0.767513 -0.127126 -7.38281e-17)
(0.832437 0.0761142 4.65912e-17)
(0.957932 -0.0178542 2.51005e-17)
(0.900863 0.0456098 -4.72446e-17)
(0.818801 0.187635 4.23471e-18)
(0.775628 -0.0413393 -1.06594e-17)
(0.895855 0.128511 -1.72178e-16)
(0.842847 -0.0308406 -4.65953e-17)
(0.888503 0.00182359 5.9085e-17)
(0.926929 -0.0447111 8.06929e-18)
(0.925709 -0.00414301 1.20907e-18)
(0.920543 0.294263 9.45108e-18)
(0.842941 -0.00565475 5.77795e-17)
(0.73115 -0.131756 6.84043e-17)
(0.78377 0.0428945 -1.58822e-16)
(0.901018 -0.00339242 -1.0199e-16)
(0.898527 0.0482172 1.04432e-16)
(0.905485 0.051097 -4.44461e-17)
(0.918927 0.00368545 -4.82235e-18)
(1.17204 0.404678 -8.61238e-18)
(0.779098 -0.0864718 3.8574e-17)
(0.880044 0.130724 6.95127e-17)
(0.841559 -0.0120426 4.53717e-19)
(0.791559 -0.0172403 -1.70315e-16)
(0.823766 -0.032351 -3.28802e-16)
(0.870085 0.00502168 -4.78231e-17)
(0.894864 0.0356024 -8.29713e-17)
(0.989421 -0.016404 -1.85333e-18)
(0.872181 0.186742 1.77266e-17)
(0.832291 0.0521328 -6.09157e-18)
(0.748747 -0.0969007 3.52626e-17)
(0.7424 0.0192411 5.8475e-17)
(0.825692 -0.0219852 6.14755e-17)
(0.777127 0.000672381 8.19243e-17)
(0.819689 0.0358155 -3.26552e-17)
(0.880008 0.0206948 7.51101e-17)
(0.913975 0.0247228 -1.65511e-17)
(1.04323 0.0147264 -3.45218e-18)
(1.19199 0.375502 -9.6523e-18)
(0.803343 -0.0534586 1.11668e-16)
(0.857366 0.0993298 2.89462e-17)
(0.836894 0.00185377 6.69238e-17)
(0.718231 -0.020111 8.24119e-17)
(0.772439 -0.0454895 1.3773e-16)
(0.841489 -0.00100492 1.5766e-16)
(0.869473 0.0150107 -8.63104e-17)
(0.89247 0.00956128 -1.77466e-18)
(0.947781 0.0675336 -4.65801e-17)
(0.805398 -0.0199551 -8.74852e-18)
(0.95561 -0.0738744 1.58462e-17)
(0.838417 0.026505 -1.05016e-16)
(0.791215 -0.0730136 6.41819e-17)
(0.747223 -0.00566048 -3.40721e-17)
(0.834835 -0.0280813 5.11659e-17)
(0.807116 -0.0119552 1.07535e-16)
(0.836738 0.0272715 -6.50897e-17)
(0.86787 0.0150347 -3.30083e-17)
(0.858228 0.020112 -6.91798e-17)
(0.940607 0.0136148 4.23927e-17)
(0.973896 0.104411 -3.97675e-17)
(0.844998 0.0340528 -8.19486e-18)
(0.987326 0.423804 -5.4914e-18)
(0.783533 -0.0293539 8.02209e-18)
(0.848587 0.0822111 -1.44921e-16)
(0.862083 0.0200074 9.19376e-17)
(0.753365 0.00795859 1.02457e-17)
(0.837569 -0.0444283 7.25834e-18)
(0.851643 0.0112791 -2.29178e-18)
(0.827488 0.0104924 9.43258e-17)
(0.874268 0.00532019 1.95165e-16)
(0.88284 0.0335732 -4.42935e-17)
(0.85665 -0.00324609 -4.74529e-17)
(0.958253 0.0120402 -3.81308e-17)
(0.881554 0.0451183 -1.10084e-17)
(0.986566 -0.047446 1.44629e-17)
(0.839072 0.0441559 -1.08335e-16)
(0.768899 -0.0646326 -4.1259e-17)
(0.749831 -0.0258394 -1.08937e-16)
(0.840514 -0.0265444 1.13216e-16)
(0.807202 -0.0126743 2.87221e-17)
(0.818774 0.0289107 3.28972e-17)
(0.872266 0.0105452 -1.8604e-17)
(0.870717 0.0261248 -1.07446e-17)
(0.873029 0.0271199 -1.88524e-17)
(0.866478 0.0375191 -9.47672e-17)
(0.890237 0.0259183 7.18912e-17)
(0.909123 0.0868634 -3.53193e-17)
(0.880736 0.0133937 -1.17646e-17)
(0.921395 0.371843 -2.29625e-19)
(0.794462 -0.0382277 4.19881e-17)
(0.855953 0.0733399 -6.78944e-17)
(0.869104 0.0360715 -4.8231e-17)
(0.762476 0.0330477 -2.5221e-16)
(0.82031 -0.0292366 -1.3028e-16)
(0.820977 0.0134022 -1.15915e-16)
(0.848579 0.0106567 -6.48083e-17)
(0.881486 0.0145388 -3.64085e-17)
(0.843354 0.0251798 2.33604e-17)
(0.855655 0.00845871 1.97369e-16)
(0.883448 0.0347359 5.82807e-18)
(0.857851 0.0456314 -7.09729e-17)
(0.922903 0.0190891 -5.703e-17)
(0.884525 0.0203923 -1.34802e-17)
(1.02722 0.0405208 1.18999e-17)
(0.839401 0.0320212 8.99601e-18)
(0.796445 -0.0510077 1.64136e-16)
(0.761379 -0.0357325 -2.69037e-18)
(0.825599 -0.0192975 2.39759e-17)
(0.788405 -0.0126626 -1.29678e-16)
(0.804977 0.0185718 -5.84544e-17)
(0.876469 0.0063644 5.95573e-17)
(0.845948 0.0367015 2.21268e-17)
(0.867432 0.022753 -2.05461e-17)
(0.878383 0.0325311 -1.03959e-17)
(0.860796 0.034351 -3.99216e-17)
(0.86783 0.0522808 -1.38166e-16)
(0.865982 0.0360482 8.05277e-17)
(0.906039 0.0490923 -3.24919e-17)
(0.890327 0.00880944 -1.46586e-17)
(0.919901 0.299007 3.7862e-18)
(0.806765 -0.0296847 5.94946e-17)
(0.846539 0.0631841 -8.1546e-17)
(0.882439 0.044494 3.26195e-17)
(0.767937 0.0388843 -7.03981e-17)
(0.79569 -0.0120342 9.21462e-17)
(0.802653 0.00418291 1.8999e-16)
(0.829558 0.015867 1.83783e-16)
(0.853529 0.024307 2.66177e-17)
(0.842598 0.0202808 -5.54608e-18)
(0.879718 0.0199353 -5.95061e-17)
(0.861511 0.0274485 -1.52879e-17)
(0.858734 0.023945 2.28607e-16)
(0.867622 0.0362241 2.49379e-17)
(0.854315 0.040622 -3.11719e-17)
(0.894505 0.030833 -6.88231e-17)
(0.893745 0.0104014 -1.74085e-17)
(1.04873 0.075606 8.51151e-18)
(0.845202 0.0124031 -5.38734e-17)
(0.801751 -0.029267 3.65555e-17)
(0.773823 -0.0342654 -8.14395e-17)
(0.826375 -0.0119791 -1.19738e-18)
(0.797744 -0.008035 -7.2125e-18)
(0.805002 0.00719765 -5.73248e-17)
(0.858081 0.0151916 -1.86715e-16)
(0.827301 0.0420097 -1.20086e-16)
(0.857338 0.0185026 4.02969e-17)
(0.848891 0.0466482 3.54839e-17)
(0.855599 0.0298047 -1.99628e-17)
(0.883494 0.0447258 1.78455e-18)
(0.848864 0.0304066 -6.18366e-18)
(0.860371 0.0477659 -1.72825e-16)
(0.862567 0.0242152 8.27068e-17)
(0.905608 0.0329478 -2.77103e-17)
(0.901546 0.0113756 -1.82487e-17)
(0.909329 0.24286 5.51397e-18)
(0.809721 -0.0649841 3.67062e-17)
(0.85274 0.0479553 -8.86997e-17)
(0.885066 0.0396221 1.10565e-16)
(0.776648 0.0344599 1.58161e-16)
(0.810587 0.00207478 1.44068e-16)
(0.819315 -0.00230722 -9.36692e-17)
(0.815948 0.0161616 -9.60502e-17)
(0.838172 0.0280417 -2.58899e-17)
(0.832946 0.0254394 1.71335e-16)
(0.853634 0.0206844 9.21723e-17)
(0.846128 0.0238946 -1.58889e-17)
(0.869052 0.0288789 -3.62985e-17)
(0.859227 0.0266732 -6.41308e-17)
(0.859092 0.0250687 2.15173e-16)
(0.865493 0.0236048 6.06456e-17)
(0.855181 0.0311991 -2.6069e-17)
(0.89964 0.0403005 -5.53364e-17)
(0.899212 0.00682582 -1.93018e-17)
(1.04423 0.0956878 6.21589e-18)
(0.837017 0.0830294 -1.17614e-16)
(0.815651 -0.00350257 2.44286e-17)
(0.785233 -0.0292489 -1.02692e-16)
(0.838523 -0.0108276 3.25227e-17)
(0.809025 -0.00672863 7.35301e-17)
(0.802495 0.00279613 -4.34472e-17)
(0.849751 0.016211 3.74186e-17)
(0.842245 0.0318583 -3.43205e-19)
(0.854841 0.0271604 -1.64156e-16)
(0.830825 0.0343917 -1.64665e-16)
(0.851648 0.0303428 3.22667e-18)
(0.849751 0.046166 6.72736e-17)
(0.859957 0.0300978 -5.47981e-18)
(0.873606 0.0410816 2.75257e-18)
(0.853547 0.0261488 -2.77961e-18)
(0.862974 0.0379853 -1.24076e-16)
(0.862778 0.0295593 6.23345e-17)
(0.908743 0.0336833 -4.37594e-17)
(0.90147 0.0124908 -1.9943e-17)
(0.89672 0.219493 4.08542e-18)
(0.818103 -0.0858737 2.3019e-17)
(0.839432 0.0296697 -1.83043e-17)
(0.892609 0.0337339 6.22891e-17)
(0.788671 0.0282111 -1.30689e-16)
(0.81618 0.00378964 -1.48145e-16)
(0.812427 0.00011842 1.20175e-16)
(0.830118 0.00450017 2.60443e-16)
(0.836241 0.0390755 1.41588e-16)
(0.839892 0.0259878 -6.23627e-17)
(0.842134 0.0283284 -5.79545e-17)
(0.838094 0.033321 1.51173e-16)
(0.840221 0.0243143 4.76809e-17)
(0.844924 0.0248272 3.46482e-17)
(0.870666 0.0287701 -5.53548e-17)
(0.858991 0.0262697 -7.0738e-17)
(0.854494 0.0228165 2.14451e-16)
(0.869501 0.0328411 1.17889e-17)
(0.852008 0.0405614 -5.85763e-17)
(0.903282 0.0306071 -5.41704e-17)
(0.897109 0.00778251 -2.07839e-17)
(1.03498 0.109435 8.12539e-18)
(0.8267 0.118498 3.06143e-16)
(0.821639 0.00615978 1.58054e-16)
(0.780069 -0.0263288 8.04225e-17)
(0.841081 -0.0111022 1.16797e-16)
(0.818818 -0.0038959 -2.13289e-17)
(0.813415 0.00455642 -4.42733e-17)
(0.854581 0.00804814 -5.08668e-17)
(0.840433 0.0237384 -8.7039e-17)
(0.854297 0.0342193 4.77578e-17)
(0.84267 0.0267552 7.82287e-17)
(0.85418 0.0339146 -1.35755e-16)
(0.836622 0.0283133 -1.84789e-16)
(0.850425 0.0330702 -4.98582e-17)
(0.853373 0.0428087 2.53364e-17)
(0.859726 0.0296381 2.86318e-17)
(0.873038 0.0407749 -4.30281e-18)
(0.861497 0.0407469 5.21738e-17)
(0.86542 0.0471133 -1.25289e-16)
(0.867934 0.0270348 4.46528e-17)
(0.908499 0.0331212 -3.69508e-17)
(0.899242 0.0120886 -2.15633e-17)
(0.914039 0.197656 3.67479e-18)
(0.823856 -0.0526849 -4.28745e-16)
(0.828291 0.0185538 5.94954e-17)
(0.890154 0.0350007 -5.06087e-17)
(0.791382 0.0267546 -2.22556e-16)
(0.820731 0.000494774 3.1224e-17)
(0.82483 0.00341641 1.17274e-17)
(0.826675 0.00264644 -5.96134e-17)
(0.842683 0.0323628 -1.22889e-16)
(0.848069 0.0118645 1.82314e-16)
(0.849165 0.0376702 2.21102e-16)
(0.847158 0.0257126 1.74471e-18)
(0.841457 0.0293835 -1.242e-16)
(0.83899 0.0324744 1.24607e-16)
(0.843057 0.0246843 1.00783e-16)
(0.844781 0.0261034 4.42626e-17)
(0.86253 0.03275 -3.32298e-17)
(0.865347 0.0369855 -6.30109e-17)
(0.857071 0.0296445 1.70968e-16)
(0.87264 0.021231 4.94237e-17)
(0.856446 0.0304797 -9.69634e-18)
(0.89755 0.0271476 -5.25143e-17)
(0.895165 0.00690542 -2.21617e-17)
(1.02863 0.105301 4.1524e-18)
(0.832551 0.102944 1.81878e-16)
(0.817352 0.00993625 -5.30266e-16)
(0.783285 -0.0269042 -2.20311e-17)
(0.846415 -0.0091374 -1.117e-17)
(0.828748 -0.00400283 -3.8883e-18)
(0.823172 0.00738631 3.93201e-17)
(0.857801 -0.000169559 -1.1375e-16)
(0.836518 0.027708 -1.27942e-16)
(0.865588 0.0193023 -9.04075e-17)
(0.840897 0.0385264 -7.18163e-17)
(0.859135 0.0321123 5.41156e-17)
(0.848611 0.0245194 2.92508e-17)
(0.851575 0.0376902 -4.18581e-17)
(0.838385 0.0266098 -1.68688e-16)
(0.845728 0.0284542 -2.64436e-17)
(0.85163 0.0441537 7.55714e-18)
(0.861793 0.0311056 1.75005e-18)
(0.877209 0.0395706 -8.24635e-18)
(0.855266 0.0295636 3.79325e-17)
(0.86418 0.0345333 -1.63969e-16)
(0.863754 0.019048 4.1539e-17)
(0.898871 0.0458155 -1.36347e-17)
(0.89648 0.0107512 -2.23541e-17)
(0.92426 0.181233 5.02489e-18)
(0.833986 -0.0297776 9.51796e-17)
(0.835165 0.015748 3.50287e-16)
(0.878686 0.0429759 -3.0889e-16)
(0.796722 0.0262215 2.03684e-16)
(0.831663 0.00581458 1.26759e-16)
(0.82764 0.00784184 -1.16196e-16)
(0.821298 0.00713876 -1.66016e-16)
(0.850963 0.017101 -4.49683e-17)
(0.850614 0.0142546 -2.76271e-17)
(0.851505 0.0387897 -1.83046e-16)
(0.852693 0.0163176 1.62934e-16)
(0.846034 0.0349031 2.08379e-16)
(0.85771 0.0258835 5.9263e-17)
(0.850965 0.0317886 -1.25326e-16)
(0.839812 0.0328513 8.9408e-17)
(0.83713 0.0275705 1.02396e-16)
(0.854532 0.0280763 7.79244e-17)
(0.867742 0.0288159 -2.52119e-17)
(0.869396 0.0330257 -1.10616e-16)
(0.861134 0.0284948 2.20023e-16)
(0.872229 0.019714 9.72726e-17)
(0.854576 0.0381542 -5.13513e-17)
(0.90073 0.0188361 -6.79712e-17)
(0.896537 0.00714854 -2.3646e-17)
(1.0093 0.145942 5.13193e-18)
(0.827854 0.0880591 1.07112e-16)
(0.833261 0.0144479 2.05997e-17)
(0.785604 -0.0213101 2.59676e-16)
(0.858176 -0.00676994 -4.6377e-16)
(0.839845 0.00245531 -3.2095e-16)
(0.835624 0.0138085 -1.65482e-16)
(0.85631 -0.000579245 -5.12643e-17)
(0.843292 0.0250535 1.14429e-16)
(0.854769 0.0211755 -3.82757e-17)
(0.845769 0.0317497 -1.02569e-16)
(0.874335 0.0219833 -2.77371e-17)
(0.83738 0.0445025 -7.95412e-17)
(0.85994 0.0323135 -1.44914e-17)
(0.858145 0.0217829 2.57364e-17)
(0.856281 0.0338446 -4.66755e-17)
(0.834657 0.0270562 -1.64741e-16)
(0.844636 0.0445999 -1.60201e-16)
(0.852649 0.0432877 -2.46611e-17)
(0.864199 0.0366682 1.36256e-18)
(0.882658 0.0415496 2.25104e-17)
(0.861156 0.0336094 7.52994e-18)
(0.867583 0.0422028 -1.53238e-16)
(0.865067 0.0214605 5.17189e-17)
(0.898847 0.0456475 -2.39515e-17)
(0.904538 0.00830928 -2.4439e-17)
(1.01152 0.146083 5.88613e-18)
(0.831193 -0.0181801 -6.54385e-17)
(0.829571 0.0156634 1.14993e-16)
(0.865497 0.040788 4.48538e-17)
(0.798326 0.0263621 4.61637e-16)
(0.84658 0.0127456 -2.19498e-17)
(0.831966 0.00774134 1.28349e-16)
(0.824349 0.00939579 2.63338e-16)
(0.850336 0.0127662 2.55493e-16)
(0.854833 0.00595969 -3.85293e-17)
(0.858387 0.0269309 -2.99844e-17)
(0.850663 0.0157776 4.12169e-18)
(0.868817 0.0379875 -1.60465e-16)
(0.858673 0.0183932 1.1379e-16)
(0.851161 0.0342046 2.4775e-16)
(0.859891 0.0220111 5.84454e-17)
(0.854712 0.0310806 -9.19086e-17)
(0.84422 0.0299237 9.52434e-17)
(0.839524 0.0217908 1.63722e-16)
(0.855798 0.0302939 6.84211e-17)
(0.871302 0.0338078 -1.59102e-17)
(0.871965 0.0338902 -1.26219e-16)
(0.864269 0.0342674 1.89814e-16)
(0.871351 0.0271756 5.82414e-17)
(0.85643 0.0308442 -2.46268e-17)
(0.907606 0.0318334 -3.80964e-17)
(0.882916 0.00400059 -2.56351e-17)
(0.999782 0.128487 5.6897e-18)
(0.819478 0.0755225 -4.03674e-16)
(0.829676 0.0241503 -2.67733e-16)
(0.78532 -0.0169292 -2.22874e-17)
(0.846999 0.000967578 -1.72027e-17)
(0.842499 0.00628286 3.84451e-16)
(0.829015 0.0138018 4.21462e-16)
(0.841761 5.94098e-05 2.60806e-16)
(0.825634 0.0158426 8.67281e-17)
(0.863902 0.0134242 -1.9124e-17)
(0.853248 0.0217055 9.25506e-17)
(0.865512 0.0348107 -1.31244e-17)
(0.850839 0.0286776 -1.17562e-16)
(0.878382 0.0304931 -1.16653e-16)
(0.843718 0.0360802 -6.1684e-17)
(0.867792 0.0330231 -5.8011e-17)
(0.857505 0.0245161 2.83972e-17)
(0.855101 0.0354759 -4.64153e-17)
(0.836058 0.0276853 -1.3228e-16)
(0.847078 0.0339971 6.77455e-18)
(0.8547 0.0371247 -2.711e-17)
(0.871968 0.0357969 -3.17231e-17)
(0.881312 0.042555 6.31248e-18)
(0.861789 0.0367949 2.5193e-17)
(0.871459 0.0343747 -1.19372e-16)
(0.866899 0.0292662 6.92823e-18)
(0.908609 0.0364275 -3.50288e-17)
(0.886684 0.0110718 -2.3167e-17)
(0.991202 0.130056 4.21694e-18)
(0.832746 -0.00765915 5.62489e-16)
(0.817394 0.0114915 -8.29224e-17)
(0.858422 0.0335623 -1.12147e-16)
(0.789151 0.0304888 1.71361e-16)
(0.842312 0.0163144 -1.37321e-16)
(0.811442 0.0122876 -1.90799e-16)
(0.81087 0.00583939 -3.25061e-16)
(0.842946 0.00385125 -3.15955e-16)
(0.83173 0.0164145 3.93197e-17)
(0.860289 0.0259862 2.39213e-16)
(0.839029 0.0128564 -6.31727e-17)
(0.861952 0.0305341 -8.71419e-17)
(0.845881 0.0181073 3.46002e-18)
(0.88081 0.0319118 -1.33286e-16)
(0.858529 0.0241847 5.50271e-17)
(0.858469 0.0368838 2.50192e-16)
(0.856789 0.0251033 6.05769e-17)
(0.858062 0.0340509 -1.05875e-16)
(0.852932 0.0267184 1.3705e-16)
(0.846155 0.0349513 2.67338e-17)
(0.853293 0.040865 6.10399e-17)
(0.875507 0.0398835 -3.48594e-17)
(0.870713 0.0350996 -1.54625e-16)
(0.864458 0.0350205 1.96559e-16)
(0.872396 0.0274566 1.08976e-16)
(0.862284 0.0261773 2.72318e-17)
(0.913371 0.0187575 -6.17543e-17)
(0.890218 0.0114802 -2.46745e-17)
(0.996787 0.112998 3.75056e-18)
(0.822917 0.0630379 -2.37134e-16)
(0.834699 0.0307899 6.74216e-16)
(0.775755 -0.0152439 2.22107e-16)
(0.828793 0.00982019 -7.86549e-17)
(0.834319 0.00809204 -3.96392e-17)
(0.814027 0.0108027 6.97603e-17)
(0.828547 -0.00461974 5.17145e-17)
(0.81767 0.0111373 1.86962e-16)
(0.866464 0.0104125 3.49248e-16)
(0.830165 0.0138592 1.65381e-16)
(0.872522 0.0260402 1.50034e-17)
(0.858265 0.0161327 1.64895e-16)
(0.875477 0.0380893 4.20071e-18)
(0.844525 0.0298428 -1.46377e-16)
(0.889862 0.034289 -1.36513e-16)
(0.839783 0.0298899 -5.20883e-17)
(0.871347 0.0358996 -8.86799e-17)
(0.853294 0.0243294 3.3706e-17)
(0.857626 0.0378807 4.89626e-17)
(0.838895 0.0308316 -1.40479e-16)
(0.848609 0.0380033 1.44292e-17)
(0.846758 0.0363856 1.96146e-18)
(0.877677 0.0341821 -4.56303e-17)
(0.875684 0.0381749 2.61276e-17)
(0.863291 0.0342612 2.04863e-17)
(0.874332 0.0349913 -1.76277e-16)
(0.863756 0.0236131 -3.68953e-18)
(0.908009 0.0364629 -3.87395e-17)
(0.891324 0.0126543 -2.44675e-17)
(1.00164 0.118155 6.36448e-18)
(0.838197 -0.00120296 -3.65055e-17)
(0.816977 0.00615438 -6.12373e-16)
(0.850335 0.0297226 2.56304e-16)
(0.772534 0.0310639 -3.32932e-16)
(0.827225 0.0167724 -4.1692e-16)
(0.79592 0.00870206 -5.2217e-16)
(0.803343 0.000441507 -4.39003e-16)
(0.829867 0.00154482 -3.7193e-16)
(0.810244 0.0113742 -3.76831e-16)
(0.8498 0.0179829 -3.96188e-16)
(0.828368 0.00806238 -7.96299e-17)
(0.865994 0.0316893 2.37076e-16)
(0.844337 0.0173934 -4.41065e-17)
(0.868492 0.0406957 -4.0843e-17)
(0.841803 0.0199127 2.07614e-17)
(0.883165 0.0353355 -1.19737e-16)
(0.853018 0.0253934 2.78979e-17)
(0.860683 0.03734 2.81041e-16)
(0.850348 0.0252408 8.97728e-17)
(0.850627 0.0374386 -1.20696e-16)
(0.850255 0.0245862 1.3811e-16)
(0.851092 0.0381292 1.01827e-17)
(0.844915 0.0366175 6.56077e-17)
(0.878019 0.0380332 -1.77202e-17)
(0.865916 0.03726 -1.30032e-16)
(0.871195 0.0350177 1.75331e-16)
(0.872958 0.0237895 1.25413e-16)
(0.865959 0.0212787 -1.8196e-18)
(0.917132 0.026962 -3.67451e-17)
(0.892127 0.0133162 -2.34605e-17)
(1.00568 0.113989 6.99879e-18)
(0.82813 0.0498943 1.8396e-16)
(0.84173 0.0265155 2.78473e-16)
(0.766862 -0.0149718 -5.57751e-16)
(0.805829 0.0168744 6.43779e-16)
(0.812103 0.0147459 5.08924e-16)
(0.802107 0.0097863 4.17598e-16)
(0.817794 0.00113653 4.56202e-16)
(0.799032 0.0138941 3.68704e-16)
(0.849956 0.00832643 2.03417e-16)
(0.810926 0.0138755 2.06315e-16)
(0.865919 0.0145385 3.33334e-16)
(0.833489 0.0163807 8.59338e-17)
(0.86748 0.0293567 6.45115e-18)
(0.85754 0.0172315 1.67301e-16)
(0.88006 0.0358111 4.03353e-18)
(0.843152 0.0324362 -1.32387e-16)
(0.889224 0.0324686 -1.30718e-16)
(0.834952 0.0273952 -5.25671e-17)
(0.865964 0.0389369 -5.84315e-17)
(0.854343 0.0254738 5.30135e-17)
(0.86164 0.0399548 -1.27484e-17)
(0.835916 0.0323754 -1.7855e-16)
(0.855658 0.0383505 -1.88726e-18)
(0.838126 0.0398436 -3.31928e-18)
(0.874023 0.0355258 -3.75393e-17)
(0.872073 0.0352027 -3.53269e-18)
(0.863983 0.0372446 5.96996e-17)
(0.873548 0.033818 -1.27502e-16)
(0.86618 0.0329701 1.15051e-17)
(0.908442 0.0328497 -2.6349e-17)
(0.890114 0.0120452 -2.57899e-17)
(1.00944 0.120365 9.55538e-18)
(0.841831 -8.17266e-06 -4.98204e-16)
(0.82801 -0.00208701 -8.331e-17)
(0.850227 0.0289378 3.63105e-16)
(0.756897 0.0263182 -5.18568e-16)
(0.811444 0.0166317 2.08112e-16)
(0.789069 0.00568671 8.34786e-17)
(0.784004 0.00433043 1.42454e-16)
(0.811813 0.00450719 -1.65047e-16)
(0.78396 0.00347647 -3.33685e-16)
(0.836629 0.0113741 -3.40903e-16)
(0.814521 0.0113909 -2.76524e-16)
(0.849028 0.0182185 -3.10941e-16)
(0.834582 0.0130204 1.83158e-17)
(0.865207 0.0365425 2.08244e-16)
(0.844487 0.0188698 -5.96865e-17)
(0.876282 0.0440442 -1.45698e-17)
(0.845706 0.0182737 1.07661e-17)
(0.878434 0.0362571 -1.16951e-16)
(0.845636 0.0263648 1.60804e-17)
(0.859867 0.0393272 2.867e-16)
(0.847654 0.0247206 1.07747e-16)
(0.857503 0.0391651 -1.34685e-16)
(0.842055 0.0242344 1.51927e-16)
(0.853665 0.0383403 9.99706e-18)
(0.842939 0.0360122 5.01329e-17)
(0.873378 0.0418442 -1.97257e-17)
(0.865159 0.0371127 -1.52096e-16)
(0.873363 0.0376356 1.91576e-16)
(0.874257 0.0279515 1.09296e-16)
(0.866213 0.0295884 1.83306e-17)
(0.917565 0.0245494 -3.83532e-17)
(0.883768 0.0120343 -2.62794e-17)
(1.00363 0.0946814 2.04932e-18)
(0.819068 0.038075 2.65124e-16)
(0.844458 0.0239309 -5.41975e-16)
(0.783697 -0.00732545 -1.42238e-16)
(0.798856 0.0244153 2.04887e-16)
(0.798515 0.0255218 -7.45636e-16)
(0.800402 0.010987 -7.06793e-16)
(0.802487 0.00391504 -4.43516e-16)
(0.787835 0.0196531 -3.06725e-16)
(0.833399 0.00182071 8.8443e-17)
(0.797946 0.0072871 3.86409e-16)
(0.851116 0.0125059 2.30104e-16)
(0.82034 0.00845138 -6.38488e-17)
(0.863011 0.014151 2.83127e-16)
(0.843071 0.0139665 2.46483e-17)
(0.870082 0.0320553 -4.87393e-18)
(0.853331 0.0261433 1.55726e-16)
(0.883139 0.0327811 1.51616e-17)
(0.843629 0.0343514 -1.16725e-16)
(0.889324 0.0288222 -1.45119e-16)
(0.834247 0.0242134 -8.78764e-17)
(0.867521 0.0385833 -4.16056e-17)
(0.849373 0.0262075 5.13533e-17)
(0.860997 0.0452031 6.45737e-17)
(0.832142 0.035675 -1.78223e-16)
(0.858146 0.0401741 1.01782e-17)
(0.836398 0.0385356 7.51916e-21)
(0.874791 0.043258 -3.9136e-17)
(0.870788 0.034286 3.95963e-17)
(0.869903 0.0395017 2.01449e-17)
(0.868989 0.0354898 -1.7093e-16)
(0.86811 0.0303999 -1.25615e-17)
(0.906234 0.0350775 -2.82828e-17)
(0.879319 0.0152068 -2.76078e-17)
(0.996959 0.104197 6.05937e-18)
(0.842408 -0.0025211 -5.87872e-17)
(0.815377 -0.0106215 5.08e-16)
(0.839972 0.0300785 -3.52244e-16)
(0.760388 0.0210818 1.96221e-16)
(0.803671 0.0170812 7.15996e-16)
(0.790432 0.00130284 7.05908e-16)
(0.779643 0.00388901 6.01503e-16)
(0.800103 0.0139385 5.40131e-16)
(0.783243 0.00316401 5.78182e-16)
(0.824604 0.00347807 1.37855e-16)
(0.786725 0.00819536 -3.5678e-16)
(0.831332 0.00893986 -3.56461e-16)
(0.821144 0.00945305 -7.32773e-17)
(0.839251 0.0186585 -5.39006e-16)
(0.848827 0.0124069 9.30445e-18)
(0.868863 0.0366321 1.97323e-16)
(0.852246 0.0190144 -7.67797e-17)
(0.881123 0.0429305 -4.20164e-17)
(0.846778 0.0174118 1.7654e-18)
(0.879418 0.0370926 -1.47711e-16)
(0.839863 0.0286821 2.46911e-18)
(0.859118 0.0442356 2.52424e-16)
(0.84342 0.0250645 9.33408e-17)
(0.854101 0.0395714 -1.38917e-16)
(0.835028 0.0237515 8.19861e-17)
(0.852486 0.0416684 2.18508e-17)
(0.839179 0.0375132 5.21202e-17)
(0.870657 0.0397077 1.07605e-17)
(0.866477 0.0371624 -1.47448e-16)
(0.87596 0.043019 1.70187e-16)
(0.865085 0.0269492 1.31967e-16)
(0.867637 0.0300814 2.56941e-17)
(0.911842 0.0266094 -4.72638e-17)
(0.877504 0.0207568 -2.81372e-17)
(0.984173 0.0837244 -9.55999e-19)
(0.819932 0.030413 9.81711e-17)
(0.844902 0.0260885 -1.11103e-16)
(0.783817 0.000736687 4.84831e-16)
(0.80431 0.0268962 -8.10349e-16)
(0.791912 0.0292075 -4.65514e-16)
(0.794519 0.00893958 -3.83635e-19)
(0.797456 0.00832728 -1.18802e-16)
(0.788808 0.0223289 -2.65756e-16)
(0.82154 0.00332135 -3.09716e-16)
(0.78891 0.0113794 -3.8648e-16)
(0.83624 0.00648181 -1.86763e-17)
(0.801414 0.00652932 2.3207e-16)
(0.840676 0.016286 1.95761e-16)
(0.826201 0.0084319 -8.81841e-17)
(0.85909 0.0186977 5.74821e-17)
(0.839558 0.0147619 1.86809e-17)
(0.871692 0.0305307 4.89037e-17)
(0.853287 0.0255069 1.88462e-16)
(0.880356 0.0320213 6.51869e-19)
(0.844098 0.0349301 -1.22813e-16)
(0.893453 0.030311 -8.82796e-17)
(0.840406 0.0246103 -9.37612e-17)
(0.874378 0.0369137 -9.68542e-17)
(0.849552 0.0247472 6.7082e-17)
(0.864527 0.0479362 6.55265e-17)
(0.827901 0.0379099 -1.43078e-16)
(0.853582 0.0420897 1.2477e-17)
(0.835225 0.0390689 -6.46755e-18)
(0.872421 0.0441253 -4.47561e-17)
(0.869337 0.0350567 4.69369e-19)
(0.873929 0.0344959 9.39997e-17)
(0.865835 0.0330883 -1.60859e-16)
(0.870039 0.0368362 -6.95605e-18)
(0.902149 0.0292589 -2.89569e-17)
(0.875417 0.0243155 -2.79286e-17)
(0.98134 0.090678 1.09682e-17)
(0.834123 -0.00358951 1.75259e-16)
(0.814915 -0.0155834 2.85009e-16)
(0.834047 0.0317266 -8.01475e-17)
(0.762515 0.0163895 4.99061e-16)
(0.791612 0.0151027 -3.11122e-16)
(0.785788 0.00280143 -3.73976e-16)
(0.771174 7.99484e-05 -2.61663e-16)
(0.797426 0.0218549 -1.23729e-16)
(0.772979 -0.00311505 1.64339e-16)
(0.82467 0.0166689 3.96484e-16)
(0.794471 0.00291029 5.72285e-16)
(0.822643 0.013572 1.53761e-16)
(0.794047 0.0105575 -1.81766e-17)
(0.824869 0.00957787 -2.3085e-16)
(0.829937 0.0093039 -9.32893e-17)
(0.851279 0.0219273 -5.98726e-17)
(0.842456 0.0187155 2.2417e-17)
(0.868589 0.036306 1.60032e-16)
(0.849735 0.0216252 -4.27735e-17)
(0.881068 0.0401765 -6.5128e-17)
(0.842987 0.01847 6.81168e-18)
(0.873235 0.0368343 -1.51684e-16)
(0.838231 0.0272336 2.6342e-17)
(0.859755 0.0497658 2.23147e-16)
(0.842347 0.0239542 8.11414e-17)
(0.85386 0.0402545 -1.41984e-16)
(0.833514 0.0246677 4.32893e-17)
(0.854216 0.0383308 5.39845e-18)
(0.838557 0.0364943 4.5187e-17)
(0.872627 0.0424891 1.53606e-17)
(0.86321 0.0343794 -1.73999e-16)
(0.879101 0.0460467 1.48582e-16)
(0.860621 0.0258414 1.59374e-16)
(0.87079 0.0305804 2.44161e-17)
(0.901784 0.0319599 -4.09199e-17)
(0.878092 0.0271714 -2.70366e-17)
(0.977617 0.0777458 3.54514e-18)
(0.817376 0.0236585 -1.61459e-17)
(0.843551 0.0257492 -7.5055e-18)
(0.788261 0.0127769 1.80911e-16)
(0.798019 0.0271588 5.36933e-17)
(0.789901 0.0323413 7.29145e-16)
(0.791459 0.00661679 5.16113e-16)
(0.801115 0.012712 4.23054e-17)
(0.798673 0.0182165 2.76669e-17)
(0.818755 0.0143691 1.00964e-16)
(0.780442 0.0220291 -1.40999e-16)
(0.824307 0.0109517 -3.25872e-16)
(0.79786 0.0143953 -3.77336e-16)
(0.830242 0.0083299 -2.07344e-17)
(0.802855 0.00890293 2.66812e-17)
(0.837168 0.0204576 1.48467e-16)
(0.830657 0.0102009 -1.18154e-16)
(0.855614 0.022187 -4.53818e-17)
(0.843864 0.0172173 2.32873e-17)
(0.869849 0.0326339 3.7867e-17)
(0.857488 0.0273556 1.24778e-16)
(0.882852 0.0323252 7.60882e-17)
(0.844617 0.0334579 -1.01917e-16)
(0.895354 0.0305185 -1.13817e-16)
(0.845774 0.026358 -4.08243e-17)
(0.864296 0.0362522 -2.09963e-17)
(0.853508 0.0223957 6.88828e-17)
(0.86473 0.0450742 2.19517e-18)
(0.827556 0.0335908 -1.28296e-16)
(0.857601 0.043622 -8.97384e-19)
(0.834232 0.0370731 -3.44022e-18)
(0.875421 0.0476422 -4.51522e-17)
(0.869201 0.0377608 7.83013e-18)
(0.880478 0.0354518 1.01824e-16)
(0.857479 0.0337887 -1.44577e-16)
(0.874334 0.0374347 5.88592e-18)
(0.893574 0.0295347 -3.41657e-17)
(0.881096 0.029216 -2.83438e-17)
(0.976942 0.0848041 9.22736e-18)
(0.84509 -0.00311133 -3.4156e-16)
(0.817288 -0.0193142 -2.1125e-16)
(0.846418 0.031057 -3.58895e-16)
(0.780643 0.010824 3.68876e-17)
(0.802586 0.0194132 -7.83615e-17)
(0.799674 0.00733774 5.7816e-17)
(0.788764 -0.000675257 9.95265e-17)
(0.815753 0.0183836 2.38558e-17)
(0.774224 0.00385165 -7.45934e-17)
(0.818496 0.0173812 -1.52617e-16)
(0.778259 -0.000941526 3.97414e-17)
(0.818672 0.0168718 3.38871e-16)
(0.79903 0.00804712 4.12974e-16)
(0.81737 0.0123098 9.5065e-17)
(0.807462 0.0111997 2.96793e-17)
(0.822669 0.0156591 -3.44824e-16)
(0.833184 0.00870772 -1.18895e-16)
(0.85616 0.0233654 -9.67261e-17)
(0.846564 0.0178915 1.83944e-17)
(0.870618 0.033076 1.51885e-16)
(0.849687 0.0250504 -2.55202e-17)
(0.880513 0.0354189 -8.93306e-17)
(0.838541 0.0200719 7.22539e-18)
(0.871373 0.0383734 -1.68915e-16)
(0.850193 0.0256214 -2.27644e-17)
(0.858334 0.0529268 2.43966e-16)
(0.844787 0.0250921 8.30621e-17)
(0.859663 0.0392924 -1.49944e-16)
(0.828954 0.0279074 -3.39698e-18)
(0.852745 0.0395943 2.86517e-17)
(0.839353 0.0367183 2.56556e-17)
(0.875461 0.041658 2.90184e-17)
(0.85788 0.0324028 -1.50983e-16)
(0.882362 0.0467286 1.38134e-16)
(0.855808 0.0293198 1.22702e-16)
(0.876201 0.03958 1.08351e-17)
(0.89031 0.0290092 -3.62826e-17)
(0.882799 0.0316317 -2.95135e-17)
(0.973157 0.069971 4.15246e-18)
(0.821333 0.0176795 1.10383e-16)
(0.854128 0.028771 -2.31573e-16)
(0.803612 0.0251014 -1.07164e-16)
(0.803254 0.0275566 7.37736e-17)
(0.809236 0.0302839 1.08214e-16)
(0.810319 0.00809185 -4.77797e-16)
(0.825481 0.0112651 -4.37197e-16)
(0.814835 0.0230693 -1.74476e-16)
(0.841719 0.00250954 -1.48065e-16)
(0.793862 0.0123933 -5.30058e-17)
(0.825249 0.0120347 1.01197e-16)
(0.793408 0.0124029 -3.76128e-17)
(0.821753 0.00965292 -3.22479e-16)
(0.807323 0.0123479 -6.09407e-17)
(0.825572 0.0144743 -7.37063e-18)
(0.812817 0.0104958 1.86404e-17)
(0.838134 0.0188602 1.41459e-16)
(0.833782 0.0134824 -5.15124e-17)
(0.858581 0.0258976 -1.38457e-16)
(0.849323 0.0165725 3.78502e-18)
(0.873172 0.0320551 1.0804e-16)
(0.854918 0.0267486 1.1774e-16)
(0.883842 0.0316502 8.98456e-17)
(0.849518 0.0252086 -4.60455e-17)
(0.877942 0.0320557 -1.00662e-16)
(0.843745 0.0269063 -1.14766e-17)
(0.862969 0.0341433 -9.30283e-17)
(0.853818 0.0238769 9.3362e-17)
(0.865746 0.0451245 -1.163e-17)
(0.827685 0.0311564 -9.31628e-17)
(0.855688 0.0468763 2.38672e-17)
(0.833966 0.0384107 8.49109e-18)
(0.877724 0.0515387 -3.24583e-17)
(0.863853 0.0392731 -5.08154e-17)
(0.881039 0.0373146 6.66264e-17)
(0.852189 0.0397176 -2.11712e-16)
(0.878616 0.0409529 8.88217e-18)
(0.886968 0.035414 -2.74717e-17)
(0.884702 0.0345965 -3.5721e-17)
(0.975287 0.0726804 1.27166e-18)
(0.84786 -0.000171751 -2.05628e-16)
(0.827844 -0.0207737 1.74005e-20)
(0.851493 0.0280163 -3.21816e-17)
(0.793981 0.00453881 3.0684e-18)
(0.815269 0.0165332 -4.71289e-16)
(0.827487 0.00170966 -2.82658e-16)
(0.818503 0.00491459 -1.64811e-16)
(0.836239 0.023955 -8.37207e-17)
(0.802495 0.00490542 1.33287e-17)
(0.827477 0.0287763 1.83015e-17)
(0.780738 0.00911292 -4.23654e-17)
(0.812579 0.0205752 -1.47516e-16)
(0.783949 0.00637924 -5.05524e-17)
(0.813947 0.0223253 2.92517e-16)
(0.808152 0.0127767 3.1334e-16)
(0.816961 0.00984209 9.83206e-17)
(0.816431 0.011821 4.35316e-17)
(0.825935 0.0197679 -1.17292e-16)
(0.835474 0.0114506 -8.379e-17)
(0.860182 0.0257792 -9.44937e-17)
(0.847448 0.0187652 -7.0007e-18)
(0.873327 0.0318726 1.17392e-16)
(0.84784 0.0259687 6.60146e-18)
(0.874112 0.0333305 -9.9912e-17)
(0.849735 0.024852 -3.93834e-17)
(0.87545 0.0352304 -1.1274e-16)
(0.849135 0.0263482 -6.13044e-17)
(0.859824 0.0535251 2.22827e-16)
(0.848343 0.0264926 1.00176e-16)
(0.861212 0.0409305 -9.2857e-17)
(0.830525 0.0287307 -1.95747e-17)
(0.852507 0.0413386 1.81938e-17)
(0.838493 0.0350206 5.27599e-17)
(0.877165 0.0397523 2.71485e-17)
(0.852935 0.0348545 -1.37256e-16)
(0.885434 0.0472447 1.51022e-16)
(0.852395 0.031429 1.26756e-16)
(0.880028 0.0432725 8.6023e-18)
(0.882364 0.0334146 -3.59649e-17)
(0.886827 0.0376604 -3.02985e-17)
(0.971146 0.0574103 1.16379e-17)
(0.821151 0.0133663 -9.93561e-18)
(0.862512 0.0282372 -2.20507e-16)
(0.816122 0.0311579 -8.29555e-17)
(0.815704 0.0257751 -4.58614e-16)
(0.831553 0.033455 -2.65231e-16)
(0.831305 0.0129657 -1.11771e-16)
(0.860099 0.0110864 3.47356e-16)
(0.82614 0.0288349 3.63309e-16)
(0.86562 0.00193778 4.9887e-17)
(0.815763 0.0203602 -1.10358e-16)