/*--------------------------------*- C++ -*----------------------------------*\
| =========                 |                                                 |
| \\      /  F ield         | OpenFOAM: The Open Source CFD Toolbox           |
|  \\    /   O peration     | Version:  2206                                  |
|   \\  /    A nd           | Website:  www.openfoam.com                      |
|    \\/     M anipulation  |                                                 |
\*---------------------------------------------------------------------------*/
FoamFile
{
    version     2.0;
    format      ascii;
    arch        "LSB;label=32;scalar=64";
    class       volScalarField;
    location    "200";
    object      alphat;
}
// * * * * * * * * * * * * * * * * * * * * * * * * * * * * * * * * * * * * * //

dimensions      [1 -1 -1 0 0 0 0];

internalField   nonuniform List<scalar> 
93840
(
1.19265e-06
5.81507e-12
1.23948e-06
9.25319e-08
2.16819e-12
1.09589e-06
1.1411e-09
4.87585e-08
1.25615e-10
7.25406e-07
5.89981e-08
1.33666e-08
6.08671e-08
1.64092e-09
5.56368e-07
2.03815e-08
2.94117e-08
1.3014e-08
8.03104e-08
3.08929e-09
4.34469e-07
3.47961e-08
1.93322e-08
3.96539e-08
6.64329e-09
5.05078e-08
3.85621e-09
5.16336e-07
2.55819e-08
2.99544e-08
2.22348e-08
4.94678e-08
1.12627e-08
5.57774e-08
3.26557e-09
4.62138e-07
3.5419e-08
2.0467e-08
3.30485e-08
2.44108e-08
3.95966e-08
1.44878e-08
4.0063e-08
3.19848e-09
5.24706e-07
2.79055e-08
3.49342e-08
2.13038e-08
3.21684e-08
2.30162e-08
3.49991e-08
2.12297e-08
3.78256e-08
3.03993e-09
4.86298e-07
3.58186e-08
2.36327e-08
3.47435e-08
2.51316e-08
3.11077e-08
2.46583e-08
2.70342e-08
2.21427e-08
3.61389e-08
3.42751e-09
5.32755e-07
2.75175e-08
3.50711e-08
2.30059e-08
3.57973e-08
2.5143e-08
3.02106e-08
2.35194e-08
2.99742e-08
2.27802e-08
3.26077e-08
3.16403e-09
4.82983e-07
3.4488e-08
2.50864e-08
3.63965e-08
2.77875e-08
3.24931e-08
2.59939e-08
2.98642e-08
2.54162e-08
2.76698e-08
2.23758e-08
3.35843e-08
3.23291e-09
5.18039e-07
2.67277e-08
3.29509e-08
2.46647e-08
3.5827e-08
2.62621e-08
3.11083e-08
2.5888e-08
3.0898e-08
2.37964e-08
2.91091e-08
2.33515e-08
3.42399e-08
3.18517e-09
4.96935e-07
3.32844e-08
2.52244e-08
3.65728e-08
2.91027e-08
3.31979e-08
2.79976e-08
3.20586e-08
2.63036e-08
2.91086e-08
2.60333e-08
2.70777e-08
2.1659e-08
3.36956e-08
3.30169e-09
5.15199e-07
2.67469e-08
3.2349e-08
2.53493e-08
3.64174e-08
2.7364e-08
3.34648e-08
2.73703e-08
3.16223e-08
2.58257e-08
3.03886e-08
2.29234e-08
2.88339e-08
2.2858e-08
3.24561e-08
3.18154e-09
4.94623e-07
3.31602e-08
2.52989e-08
3.6126e-08
2.94748e-08
3.38302e-08
3.0152e-08
3.20877e-08
2.7522e-08
3.17372e-08
2.6714e-08
2.87622e-08
2.54871e-08
2.71883e-08
2.22621e-08
3.36568e-08
3.3176e-09
5.08222e-07
2.65452e-08
3.16519e-08
2.48404e-08
3.6062e-08
2.76561e-08
3.47296e-08
2.71985e-08
3.28636e-08
2.65426e-08
3.12463e-08
2.5676e-08
2.99675e-08
2.2918e-08
2.86584e-08
2.25375e-08
3.34829e-08
3.34484e-09
4.93312e-07
3.32156e-08
2.48219e-08
3.56887e-08
2.90142e-08
3.41116e-08
3.10161e-08
3.22737e-08
2.92782e-08
3.16767e-08
2.7169e-08
3.13519e-08
2.63861e-08
2.91337e-08
2.52985e-08
2.73568e-08
2.16614e-08
3.30793e-08
3.45001e-09
5.03336e-07
2.72464e-08
3.24684e-08
2.5318e-08
3.53894e-08
2.79554e-08
3.51685e-08
2.77451e-08
3.43659e-08
2.63324e-08
3.23319e-08
2.6347e-08
3.11639e-08
2.5438e-08
3.01275e-08
2.2982e-08
2.84455e-08
2.30208e-08
3.25782e-08
3.40599e-09
4.90556e-07
3.32736e-08
2.53731e-08
3.47035e-08
2.87247e-08
3.39995e-08
3.05446e-08
3.28557e-08
2.96956e-08
3.12984e-08
2.88652e-08
3.17834e-08
2.67029e-08
3.10179e-08
2.6495e-08
2.88589e-08
2.462e-08
2.70024e-08
2.2039e-08
3.34604e-08
3.45699e-09
5.02159e-07
2.68906e-08
3.22067e-08
2.5166e-08
3.43706e-08
2.79446e-08
3.45225e-08
2.92697e-08
3.44029e-08
2.77039e-08
3.26669e-08
2.57215e-08
3.24268e-08
2.60462e-08
3.08775e-08
2.53165e-08
2.98332e-08
2.27675e-08
2.79189e-08
2.25667e-08
3.31784e-08
3.46676e-09
4.93178e-07
3.49913e-08
2.5981e-08
3.47248e-08
2.9219e-08
3.42152e-08
3.0176e-08
3.36304e-08
3.00619e-08
3.32794e-08
2.97671e-08
3.16124e-08
2.83129e-08
3.18158e-08
2.66426e-08
3.13505e-08
2.66823e-08
2.89967e-08
2.45453e-08
2.68753e-08
2.22174e-08
3.31683e-08
3.60933e-09
5.05889e-07
2.76439e-08
3.27435e-08
2.54925e-08
3.4643e-08
2.87313e-08
3.44057e-08
2.97445e-08
3.45488e-08
2.77901e-08
3.35319e-08
2.65971e-08
3.34474e-08
2.56295e-08
3.19004e-08
2.59705e-08
3.05491e-08
2.45426e-08
2.93786e-08
2.25457e-08
2.79041e-08
2.25575e-08
3.25686e-08
3.52688e-09
5.00956e-07
3.39834e-08
2.50206e-08
3.44852e-08
2.8971e-08
3.40885e-08
3.02263e-08
3.3722e-08
2.9965e-08
3.45226e-08
2.98735e-08
3.30075e-08
2.93224e-08
3.20884e-08
2.79422e-08
3.25344e-08
2.67544e-08
3.09681e-08
2.67924e-08
2.86636e-08
2.41135e-08
2.71293e-08
2.25098e-08
3.24207e-08
3.54472e-09
4.99125e-07
2.70746e-08
3.41541e-08
2.57061e-08
3.47209e-08
2.88102e-08
3.4403e-08
2.94876e-08
3.38824e-08
2.91337e-08
3.31744e-08
2.82628e-08
3.31127e-08
2.65275e-08
3.33838e-08
2.5953e-08
3.10667e-08
2.583e-08
3.03284e-08
2.49645e-08
2.93438e-08
2.25794e-08
2.80799e-08
2.27865e-08
3.26722e-08
3.48546e-09
4.65146e-07
3.41776e-08
2.61195e-08
3.46138e-08
2.92407e-08
3.40833e-08
3.06213e-08
3.36602e-08
2.9701e-08
3.38056e-08
2.97807e-08
3.33031e-08
2.91451e-08
3.23887e-08
2.81414e-08
3.21061e-08
2.90731e-08
3.22645e-08
2.65768e-08
3.07976e-08
2.68465e-08
2.82335e-08
2.45792e-08
2.73919e-08
2.26932e-08
3.31946e-08
3.93493e-09
5.00463e-07
2.6947e-08
3.24997e-08
2.58513e-08
3.43428e-08
2.85211e-08
3.4677e-08
2.98063e-08
3.42492e-08
2.93011e-08
3.38676e-08
2.82572e-08
3.28089e-08
2.74945e-08
3.30702e-08
2.68421e-08
3.27603e-08
2.59213e-08
3.17147e-08
2.62673e-08
3.00682e-08
2.48872e-08
2.93481e-08
2.27661e-08
2.71464e-08
2.28646e-08
3.29564e-08
3.86838e-09
4.78472e-07
3.39124e-08
2.56662e-08
3.44024e-08
2.88768e-08
3.38538e-08
3.06271e-08
3.40736e-08
3.03325e-08
3.41231e-08
2.9716e-08
3.4236e-08
2.91317e-08
3.32782e-08
2.839e-08
3.19534e-08
2.8581e-08
3.19173e-08
2.82831e-08
3.23182e-08
2.61562e-08
3.05553e-08
2.64001e-08
2.8218e-08
2.46043e-08
2.69524e-08
2.23894e-08
3.28732e-08
3.81122e-09
4.8923e-07
2.66538e-08
3.24643e-08
2.60275e-08
3.38565e-08
2.80049e-08
3.46618e-08
3.01581e-08
3.51556e-08
2.8718e-08
3.38913e-08
2.94468e-08
3.39752e-08
2.84746e-08
3.29522e-08
2.77717e-08
3.29097e-08
2.69625e-08
3.27259e-08
2.70028e-08
3.18325e-08
2.68827e-08
3.00813e-08
2.57347e-08
2.90617e-08
2.30881e-08
2.74344e-08
2.27192e-08
3.27703e-08
4.02919e-09
4.77287e-07
3.33591e-08
2.49246e-08
3.36504e-08
2.84892e-08
3.35396e-08
3.07533e-08
3.41531e-08
3.13869e-08
3.47305e-08
2.99951e-08
3.44603e-08
2.9175e-08
3.37723e-08
2.90218e-08
3.35165e-08
2.81009e-08
3.21642e-08
2.82299e-08
3.17515e-08
2.75566e-08
3.19364e-08
2.6346e-08
3.00196e-08
2.57072e-08
2.82111e-08
2.43825e-08
2.73672e-08
2.26667e-08
3.20783e-08
4.03182e-09
4.82842e-07
2.60394e-08
3.30365e-08
2.55843e-08
3.30683e-08
2.74286e-08
3.42968e-08
2.97728e-08
3.49143e-08
2.9069e-08
3.45269e-08
2.95938e-08
3.40982e-08
2.90734e-08
3.32819e-08
2.85301e-08
3.28297e-08
2.78713e-08
3.31586e-08
2.71728e-08
3.26628e-08
2.65182e-08
3.15441e-08
2.64621e-08
2.99609e-08
2.58606e-08
2.91559e-08
2.30138e-08
2.73322e-08
2.29702e-08
3.27364e-08
4.05372e-09
4.74169e-07
3.31912e-08
2.55528e-08
3.22764e-08
2.82697e-08
3.26834e-08
3.01719e-08
3.37539e-08
3.23279e-08
3.43428e-08
3.06448e-08
3.46053e-08
3.01237e-08
3.3986e-08
2.91231e-08
3.40196e-08
2.84504e-08
3.32148e-08
2.75669e-08
3.27674e-08
2.83421e-08
3.24485e-08
2.76942e-08
3.1585e-08
2.65419e-08
2.978e-08
2.51318e-08
2.82261e-08
2.49319e-08
2.75199e-08
2.23487e-08
3.2915e-08
4.25416e-09
4.78641e-07
2.63447e-08
3.16461e-08
2.48297e-08
3.26518e-08
2.67578e-08
3.36135e-08
2.93601e-08
3.5125e-08
3.01772e-08
3.42824e-08
2.88754e-08
3.4315e-08
2.89012e-08
3.39463e-08
2.88658e-08
3.31578e-08
2.86885e-08
3.31588e-08
2.77873e-08
3.31673e-08
2.70297e-08
3.26313e-08
2.68301e-08
3.1195e-08
2.74412e-08
2.99864e-08
2.56488e-08
2.96255e-08
2.29353e-08
2.7873e-08
2.29872e-08
3.21696e-08
4.549e-09
4.72718e-07
3.24229e-08
2.47813e-08
3.18805e-08
2.82187e-08
3.21974e-08
3.0352e-08
3.32868e-08
3.26749e-08
3.38424e-08
3.09858e-08
3.39388e-08
3.04932e-08
3.44718e-08
2.97136e-08
3.44064e-08
2.95731e-08
3.3857e-08
2.81388e-08
3.35196e-08
2.82886e-08
3.26064e-08
2.90255e-08
3.22518e-08
2.79998e-08
3.07773e-08
2.71177e-08
2.99207e-08
2.58821e-08
2.85705e-08
2.48885e-08
2.76328e-08
2.2524e-08
3.13123e-08
3.94745e-09
4.72734e-07
2.58501e-08
3.16029e-08
2.46473e-08
3.20652e-08
2.6222e-08
3.2868e-08
2.85804e-08
3.47129e-08
3.17799e-08
3.42068e-08
2.91578e-08
3.38344e-08
2.91994e-08
3.40883e-08
2.89715e-08
3.3147e-08
2.88843e-08
3.25008e-08
2.82576e-08
3.31694e-08
2.82027e-08
3.34832e-08
2.74218e-08
3.18704e-08
2.7242e-08
3.10371e-08
2.60267e-08
3.01682e-08
2.54742e-08
2.924e-08
2.33436e-08
2.78524e-08
2.28856e-08
3.43067e-08
3.83791e-09
4.70878e-07
3.23394e-08
2.47386e-08
3.17141e-08
2.78849e-08
3.19515e-08
2.99435e-08
3.30109e-08
3.19863e-08
3.31002e-08
3.07564e-08
3.38692e-08
3.03594e-08
3.39254e-08
3.06452e-08
3.48827e-08
2.99429e-08
3.35272e-08
2.91623e-08
3.33852e-08
2.82748e-08
3.29156e-08
2.83732e-08
3.27745e-08
2.91342e-08
3.20721e-08
2.80277e-08
3.08953e-08
2.68974e-08
2.96057e-08
2.60942e-08
2.8287e-08
2.45671e-08
2.84122e-08
2.20051e-08
3.57188e-08
4.09078e-09
4.72853e-07
2.59124e-08
3.25116e-08
2.54912e-08
3.19808e-08
2.61506e-08
3.26751e-08
2.87218e-08
3.45401e-08
3.07172e-08
3.47605e-08
2.98468e-08
3.42894e-08
2.91911e-08
3.37476e-08
2.93272e-08
3.37337e-08
2.9121e-08
3.33722e-08
2.96404e-08
3.27596e-08
2.86511e-08
3.34107e-08
2.86039e-08
3.24176e-08
2.70519e-08
3.16883e-08
2.68839e-08
3.07222e-08
2.67787e-08
2.96834e-08
2.52973e-08
2.93858e-08
2.36814e-08
2.79918e-08
2.1948e-08
3.45767e-08
4.2347e-09
4.63756e-07
3.29866e-08
2.66809e-08
3.10188e-08
2.76919e-08
3.24487e-08
2.99482e-08
3.34313e-08
3.15009e-08
3.34937e-08
3.17762e-08
3.4015e-08
3.02512e-08
3.37263e-08
3.03846e-08
3.49531e-08
3.09354e-08
3.43199e-08
2.9801e-08
3.29052e-08
2.9653e-08
3.38757e-08
2.8994e-08
3.32455e-08
2.93913e-08
3.25061e-08
2.93635e-08
3.17201e-08
2.78233e-08
3.0837e-08
2.72212e-08
2.97377e-08
2.62889e-08
2.88224e-08
2.38153e-08
2.79742e-08
2.2199e-08
3.40689e-08
4.70567e-09
4.65754e-07
2.7173e-08
3.20498e-08
2.60798e-08
3.25799e-08
2.69864e-08
3.25252e-08
2.94216e-08
3.40331e-08
2.98975e-08
3.47888e-08
3.01036e-08
3.46283e-08
2.96027e-08
3.41033e-08
2.94487e-08
3.40634e-08
2.89642e-08
3.42665e-08
2.92372e-08
3.29638e-08
2.82534e-08
3.28083e-08
2.89106e-08
3.28047e-08
2.80872e-08
3.18305e-08
2.79698e-08
3.1487e-08
2.7513e-08
3.00968e-08
2.69741e-08
2.95494e-08
2.5145e-08
2.92571e-08
2.36037e-08
2.79692e-08
2.25327e-08
3.24573e-08
4.02202e-09
4.57579e-07
3.2297e-08
2.70812e-08
3.09027e-08
2.83892e-08
3.28537e-08
2.97442e-08
3.37454e-08
3.08891e-08
3.37045e-08
3.16174e-08
3.33324e-08
3.10909e-08
3.40587e-08
3.07731e-08
3.38535e-08
2.98818e-08
3.45716e-08
3.0316e-08
3.43334e-08
2.95861e-08
3.31332e-08
2.92867e-08
3.27227e-08
2.84077e-08
3.2711e-08
2.92727e-08
3.1777e-08
2.93539e-08
3.14362e-08
2.83589e-08
3.03971e-08
2.68306e-08
2.97208e-08
2.6098e-08
2.87119e-08
2.47169e-08
2.79631e-08
2.27785e-08
3.56388e-08
3.97471e-09
4.63097e-07
2.62293e-08
3.2559e-08
2.59672e-08
3.27699e-08
2.76228e-08
3.21799e-08
2.99387e-08
3.32279e-08
2.99403e-08
3.40005e-08
3.04083e-08
3.40639e-08
2.94027e-08
3.465e-08
3.01221e-08
3.3848e-08
2.93501e-08
3.36528e-08
2.99325e-08
3.34816e-08
2.9408e-08
3.27872e-08
2.93744e-08
3.26365e-08
2.90886e-08
3.21569e-08
2.97587e-08
3.09423e-08
2.86933e-08
3.08877e-08
2.78931e-08
3.03269e-08
2.7044e-08
2.95439e-08
2.56368e-08
2.90377e-08
2.36378e-08
2.81553e-08
2.23637e-08
3.73119e-08
4.22029e-09
4.54889e-07
3.40031e-08
2.68178e-08
3.19624e-08
2.87076e-08
3.30247e-08
2.92555e-08
3.37775e-08
3.10511e-08
3.33847e-08
3.19208e-08
3.31424e-08
3.25048e-08
3.40632e-08
3.11604e-08
3.35686e-08
3.11607e-08
3.42842e-08
3.05965e-08
3.35676e-08
3.02063e-08
3.33458e-08
3.05926e-08
3.28389e-08
2.93844e-08
3.23849e-08
2.94368e-08
3.18533e-08
3.05266e-08
3.14667e-08
2.94917e-08
3.12238e-08
2.79897e-08
3.03654e-08
2.71476e-08
2.93426e-08
2.59827e-08
2.83764e-08
2.39021e-08
2.80413e-08
2.1625e-08
3.5531e-08
4.40155e-09
4.57238e-07
2.68679e-08
3.30035e-08
2.72923e-08
3.25845e-08
2.80344e-08
3.18813e-08
3.07177e-08
3.24591e-08
3.16556e-08
3.32441e-08
3.06341e-08
3.39222e-08
3.02758e-08
3.36287e-08
2.98462e-08
3.29823e-08
2.96637e-08
3.35851e-08
3.02784e-08
3.36985e-08
3.07414e-08
3.29282e-08
2.94456e-08
3.24681e-08
2.95312e-08
3.18887e-08
3.06882e-08
3.16687e-08
2.97226e-08
3.12621e-08
2.85411e-08
3.06367e-08
2.77059e-08
3.02422e-08
2.67225e-08
2.931e-08
2.56317e-08
2.88505e-08
2.4022e-08
2.7842e-08
2.27883e-08
3.49362e-08
4.5454e-09
4.52784e-07
3.23805e-08
2.70143e-08
3.13778e-08
2.8325e-08
3.30712e-08
2.87987e-08
3.40466e-08
3.01279e-08
3.35402e-08
3.122e-08
3.29205e-08
3.11274e-08
3.37832e-08
3.22597e-08
3.43289e-08
3.22713e-08
3.38727e-08
3.1799e-08
3.35282e-08
3.11721e-08
3.35714e-08
3.1101e-08
3.32346e-08
3.075e-08
3.24069e-08
3.01373e-08
3.18235e-08
3.01453e-08
3.18709e-08
3.00177e-08
3.13362e-08
2.90722e-08
3.08964e-08
2.791e-08
3.00561e-08
2.7354e-08
2.90146e-08
2.59076e-08
2.83285e-08
2.36658e-08
2.78034e-08
2.23378e-08
3.36022e-08
4.84233e-09
4.53582e-07
2.81701e-08
3.22109e-08
2.81777e-08
3.26235e-08
2.82473e-08
3.14302e-08
3.11585e-08
3.20632e-08
3.16963e-08
3.26641e-08
3.14402e-08
3.24996e-08
3.07102e-08
3.43029e-08
2.98846e-08
3.37515e-08
3.0766e-08
3.31846e-08
3.05097e-08
3.29903e-08
2.9623e-08
3.32156e-08
3.02226e-08
3.28217e-08
3.03833e-08
3.19878e-08
3.02788e-08
3.14659e-08
2.967e-08
3.14843e-08
2.96528e-08
3.07868e-08
2.86797e-08
3.06899e-08
2.80065e-08
3.00122e-08
2.70339e-08
2.89456e-08
2.57018e-08
2.922e-08
2.38106e-08
2.81497e-08
2.30288e-08
3.34605e-08
4.19708e-09
4.49732e-07
3.18873e-08
2.72512e-08
3.02583e-08
2.80753e-08
3.31978e-08
2.8373e-08
3.44757e-08
2.96188e-08
3.55036e-08
3.12289e-08
3.35935e-08
3.12284e-08
3.38063e-08
3.1248e-08
3.40496e-08
3.35353e-08
3.36079e-08
3.25679e-08
3.31634e-08
3.16981e-08
3.36878e-08
3.16302e-08
3.33285e-08
3.13619e-08
3.30784e-08
3.12421e-08
3.20822e-08
3.03572e-08
3.18282e-08
3.00374e-08
3.14174e-08
2.97167e-08
3.11692e-08
2.86416e-08
3.04099e-08
2.81103e-08
2.95339e-08
2.71148e-08
2.88784e-08
2.57619e-08
2.90484e-08
2.32839e-08
2.78124e-08
2.2854e-08
3.63766e-08
4.15763e-09
4.48941e-07
2.69862e-08
3.13701e-08
2.67688e-08
3.22944e-08
2.83406e-08
3.09403e-08
3.12306e-08
3.10581e-08
3.21556e-08
3.24171e-08
3.18585e-08
3.29446e-08
3.09478e-08
3.31837e-08
3.04214e-08
3.35991e-08
3.0875e-08
3.30609e-08
3.10478e-08
3.2607e-08
3.02217e-08
3.27982e-08
3.0699e-08
3.2842e-08
3.07144e-08
3.27067e-08
3.05128e-08
3.14307e-08
2.99715e-08
3.13447e-08
2.96343e-08
3.12553e-08
2.91326e-08
3.14478e-08
2.85329e-08
3.02236e-08
2.7994e-08
2.9612e-08
2.67425e-08
2.94431e-08
2.53797e-08
2.94772e-08
2.43244e-08
2.7933e-08
2.21666e-08
3.73273e-08
4.56256e-09
4.43646e-07
3.19079e-08
2.75508e-08
3.12079e-08
2.81173e-08
3.25396e-08
2.77415e-08
3.44702e-08
2.90693e-08
3.42617e-08
3.06638e-08
3.44301e-08
3.10117e-08
3.3937e-08
3.06724e-08
3.41456e-08
3.18845e-08
3.35835e-08
3.34701e-08
3.34783e-08
3.14498e-08
3.35854e-08
3.17387e-08
3.33744e-08
3.18443e-08
3.29741e-08
3.1003e-08
3.26349e-08
3.0736e-08
3.1937e-08
3.00342e-08
3.16624e-08
2.97727e-08
3.1737e-08
2.91371e-08
3.18372e-08
2.85129e-08
3.01185e-08
2.79205e-08
2.9786e-08
2.66992e-08
2.90242e-08
2.54673e-08
2.9393e-08
2.36376e-08
2.79103e-08
2.19033e-08
3.50226e-08
4.7276e-09
4.43663e-07
2.65161e-08
3.01361e-08
2.68855e-08
3.24271e-08
2.81193e-08
3.05087e-08
3.1548e-08
3.11126e-08
3.24414e-08
3.2359e-08
3.18452e-08
3.29621e-08
3.1183e-08
3.35624e-08
3.11116e-08
3.29196e-08
3.09389e-08
3.35299e-08
3.09454e-08
3.28961e-08
3.12695e-08
3.28086e-08
3.14181e-08
3.24591e-08
3.08268e-08
3.25579e-08
3.16995e-08
3.23293e-08
3.04725e-08
3.12811e-08
2.96471e-08
3.12616e-08
2.94218e-08
3.16179e-08
2.87052e-08
3.15865e-08
2.83616e-08
2.99396e-08
2.76228e-08
2.96486e-08
2.64043e-08
2.96999e-08
2.51395e-08
2.9497e-08
2.30409e-08
2.87061e-08
2.275e-08
3.40696e-08
5.03738e-09
4.42607e-07
3.18822e-08
2.78508e-08
2.98109e-08
2.84823e-08
3.23822e-08
2.77835e-08
3.42959e-08
2.86461e-08
3.45293e-08
2.98286e-08
3.5017e-08
3.09271e-08
3.48604e-08
3.10042e-08
3.37379e-08
3.11687e-08
3.40615e-08
3.20738e-08
3.31805e-08
3.22321e-08
3.36838e-08
3.13165e-08
3.31989e-08
3.20166e-08
3.2857e-08
3.19592e-08
3.2799e-08
3.13416e-08
3.24085e-08
3.04256e-08
3.17542e-08
2.96671e-08
3.15627e-08
2.93624e-08
3.21127e-08
2.87986e-08
3.15937e-08
2.81544e-08
3.00948e-08
2.74911e-08
2.98149e-08
2.62758e-08
2.96226e-08
2.51353e-08
2.94696e-08
2.36172e-08
2.84629e-08
2.28529e-08
3.31522e-08
4.36798e-09
4.41837e-07
2.71387e-08
2.95894e-08
2.75579e-08
3.19779e-08
2.73195e-08
3.01465e-08
3.11826e-08
3.0932e-08
3.23412e-08
3.21705e-08
3.16276e-08
3.35493e-08
3.15896e-08
3.3595e-08
3.12648e-08
3.36397e-08
3.07511e-08
3.28642e-08
3.15488e-08
3.369e-08
3.18546e-08
3.31941e-08
3.167e-08
3.26446e-08
3.1274e-08
3.22885e-08
3.10219e-08
3.23186e-08
3.11222e-08
3.23333e-08
3.02914e-08
3.14485e-08
2.94242e-08
3.16552e-08
2.89216e-08
3.24478e-08
2.86439e-08
3.16983e-08
2.81078e-08
3.00693e-08
2.73501e-08
3.02661e-08
2.5899e-08
3.00373e-08
2.52377e-08
2.99305e-08
2.38994e-08
2.91202e-08
2.33621e-08
3.60118e-08
4.36606e-09
4.38347e-07
3.08981e-08
2.64797e-08
3.01436e-08
2.82229e-08
3.20771e-08
2.7582e-08
3.42013e-08
2.89132e-08
3.46212e-08
2.99453e-08
3.50896e-08
3.05262e-08
3.4674e-08
3.15368e-08
3.44906e-08
3.12529e-08
3.42806e-08
3.17518e-08
3.38253e-08
3.13653e-08
3.36796e-08
3.18525e-08
3.31825e-08
3.18938e-08
3.29081e-08
3.17593e-08
3.24805e-08
3.10298e-08
3.26814e-08
3.12232e-08
3.25413e-08
2.99518e-08
3.18107e-08
2.92909e-08
3.20999e-08
2.929e-08
3.24761e-08
2.85772e-08
3.15658e-08
2.78692e-08
3.04037e-08
2.71587e-08
2.97421e-08
2.60882e-08
2.99173e-08
2.50396e-08
2.92573e-08
2.42184e-08
2.87867e-08
2.22184e-08
3.73474e-08
4.60844e-09
4.39685e-07
2.76811e-08
3.04264e-08
2.746e-08
3.12171e-08
2.78705e-08
3.05217e-08
3.13262e-08
3.12043e-08
3.21503e-08
3.16054e-08
3.18426e-08
3.2884e-08
3.15636e-08
3.3551e-08
3.1888e-08
3.35137e-08
3.17173e-08
3.31514e-08
3.10716e-08
3.31684e-08
3.14307e-08
3.32113e-08
3.18034e-08
3.31416e-08
3.13784e-08
3.25031e-08
3.15285e-08
3.23744e-08
3.11867e-08
3.22887e-08
3.08012e-08
3.2238e-08
2.98748e-08
3.19026e-08
2.89381e-08
3.22229e-08
2.88977e-08
3.23527e-08
2.82939e-08
3.16029e-08
2.7906e-08
3.0418e-08
2.68799e-08
3.02391e-08
2.60436e-08
3.00647e-08
2.50451e-08
2.99526e-08
2.32807e-08
2.89831e-08
2.18447e-08
3.62139e-08
4.66355e-09
4.37318e-07
3.03742e-08
2.62659e-08
3.05023e-08
2.84192e-08
3.21799e-08
2.7519e-08
3.38742e-08
2.90338e-08
3.42803e-08
2.993e-08
3.46942e-08
3.05605e-08
3.43275e-08
3.12399e-08
3.45907e-08
3.20892e-08
3.44057e-08
3.12402e-08
3.40961e-08
3.1779e-08
3.34721e-08
3.20778e-08
3.31076e-08
3.22554e-08
3.28243e-08
3.16823e-08
3.285e-08
3.12809e-08
3.29736e-08
3.10057e-08
3.24562e-08
3.09163e-08
3.23187e-08
2.96302e-08
3.24157e-08
2.9051e-08
3.23311e-08
2.92084e-08
3.27293e-08
2.82043e-08
3.17375e-08
2.77239e-08
3.07862e-08
2.67321e-08
3.01051e-08
2.58834e-08
3.01405e-08
2.52279e-08
2.95458e-08
2.44514e-08
2.91153e-08
2.24214e-08
3.57955e-08
4.69777e-09
4.36872e-07
2.70409e-08
3.15614e-08
2.85563e-08
3.07866e-08
2.81682e-08
3.05724e-08
3.10967e-08
3.14058e-08
3.20364e-08
3.15438e-08
3.23968e-08
3.24965e-08
3.26784e-08
3.2828e-08
3.14494e-08
3.29459e-08
3.22548e-08
3.34788e-08
3.19748e-08
3.30699e-08
3.15233e-08
3.26689e-08
3.13339e-08
3.31361e-08
3.1376e-08
3.26251e-08
3.15152e-08
3.25093e-08
3.12009e-08
3.24352e-08
3.10044e-08
3.21429e-08
3.07155e-08
3.25166e-08
2.93378e-08
3.22722e-08
2.91651e-08
3.2356e-08
2.9326e-08
3.22254e-08
2.81352e-08
3.19644e-08
2.75467e-08
3.08366e-08
2.66067e-08
3.03601e-08
2.54551e-08
3.03551e-08
2.5149e-08
3.00319e-08
2.33813e-08
2.91731e-08
2.23905e-08
3.57269e-08
4.94814e-09
4.30848e-07
3.07486e-08
2.67082e-08
3.01336e-08
2.73961e-08
3.22929e-08
2.74183e-08
3.3502e-08
2.92316e-08
3.42439e-08
2.9548e-08
3.46207e-08
3.04332e-08
3.42576e-08
3.0835e-08
3.36679e-08
3.18909e-08
3.38262e-08
3.19672e-08
3.39719e-08
3.18381e-08
3.29687e-08
3.2037e-08
3.37994e-08
3.17282e-08
3.32268e-08
3.24679e-08
3.28108e-08
3.13873e-08
3.28757e-08
3.12909e-08
3.29242e-08
3.09848e-08
3.25352e-08
3.07143e-08
3.28012e-08
2.93575e-08
3.22042e-08
2.95582e-08
3.22886e-08
2.93852e-08
3.26081e-08
2.80444e-08
3.21257e-08
2.73272e-08
3.10946e-08
2.64259e-08
3.03841e-08
2.57043e-08
3.04212e-08
2.53836e-08
2.94649e-08
2.43785e-08
2.94762e-08
2.22439e-08
3.45558e-08
5.15823e-09
4.33437e-07
2.67686e-08
3.24796e-08
2.80762e-08
3.10067e-08
2.90887e-08
3.05678e-08
3.0935e-08
3.15702e-08
3.22538e-08
3.08279e-08
3.24284e-08
3.23352e-08
3.22208e-08
3.2353e-08
3.24808e-08
3.24655e-08
3.20779e-08
3.38118e-08
3.2297e-08
3.32784e-08
3.23105e-08
3.29309e-08
3.15555e-08
3.28674e-08
3.20641e-08
3.2548e-08
3.14276e-08
3.29673e-08
3.12944e-08
3.26624e-08
3.09477e-08
3.24976e-08
3.12184e-08
3.21886e-08
3.04835e-08
3.2845e-08
2.93496e-08
3.2188e-08
2.96538e-08
3.19936e-08
2.88682e-08
3.30015e-08
2.78879e-08
3.19583e-08
2.74059e-08
3.1074e-08
2.63968e-08
3.05065e-08
2.58938e-08
3.04012e-08
2.54349e-08
3.00653e-08
2.35244e-08
2.93999e-08
2.26844e-08
3.34139e-08
5.41377e-09
4.28486e-07
3.11193e-08
2.81921e-08
3.10445e-08
2.73105e-08
3.25228e-08
2.73121e-08
3.34759e-08
2.92976e-08
3.35121e-08
2.95757e-08
3.4271e-08
2.98416e-08
3.31006e-08
3.04009e-08
3.32407e-08
3.14145e-08
3.33706e-08
3.178e-08
3.36907e-08
3.20965e-08
3.37455e-08
3.16821e-08
3.35059e-08
3.2134e-08
3.26606e-08
3.15663e-08
3.28104e-08
3.21824e-08
3.31277e-08
3.11733e-08
3.28413e-08
3.12292e-08
3.27906e-08
3.13226e-08
3.24812e-08
3.03489e-08
3.29886e-08
2.96924e-08
3.22537e-08
3.00172e-08
3.20066e-08
2.92566e-08
3.24208e-08
2.80203e-08
3.19715e-08
2.74863e-08
3.12825e-08
2.67011e-08
3.03482e-08
2.55912e-08
3.00348e-08
2.52111e-08
2.93009e-08
2.44042e-08
2.98954e-08
2.26279e-08
3.2579e-08
4.89854e-09
4.25425e-07
2.72536e-08
3.10517e-08
2.75623e-08
3.12143e-08
2.93545e-08
3.02996e-08
3.07085e-08
3.14452e-08
3.21103e-08
3.03555e-08
3.21374e-08
3.08998e-08
3.16436e-08
3.22105e-08
3.23285e-08
3.28559e-08
3.2456e-08
3.30345e-08
3.22826e-08
3.29274e-08
3.1842e-08
3.32212e-08
3.18301e-08
3.24195e-08
3.16678e-08
3.31183e-08
3.15816e-08
3.26573e-08
3.15553e-08
3.27731e-08
3.11759e-08
3.29869e-08
3.07776e-08
3.26019e-08
3.11317e-08
3.24739e-08
3.00491e-08
3.30085e-08
2.98446e-08
3.18206e-08
3.00747e-08
3.17574e-08
2.91493e-08
3.3265e-08
2.84067e-08
3.18689e-08
2.73896e-08
3.13117e-08
2.66561e-08
3.04858e-08
2.53463e-08
3.04243e-08
2.55727e-08
2.96538e-08
2.39296e-08
2.97182e-08
2.31256e-08
3.52337e-08
4.84499e-09
4.23066e-07
3.07535e-08
2.79619e-08
3.06987e-08
2.7486e-08
3.2787e-08
2.73364e-08
3.32507e-08
2.9274e-08
3.2996e-08
2.92768e-08
3.36041e-08
2.91465e-08
3.29161e-08
3.08067e-08
3.3632e-08
3.09763e-08
3.25759e-08
3.16665e-08
3.32032e-08
3.16611e-08
3.47608e-08
3.20215e-08
3.40432e-08
3.18586e-08
3.31445e-08
3.18336e-08
3.29698e-08
3.15304e-08
3.31139e-08
3.19975e-08
3.29594e-08
3.07613e-08
3.30285e-08
3.13315e-08
3.26369e-08
3.14392e-08
3.27093e-08
3.01918e-08
3.28646e-08
3.02395e-08
3.1565e-08
3.0539e-08
3.23505e-08
2.90398e-08
3.2804e-08
2.83941e-08
3.1679e-08
2.77356e-08
3.11346e-08
2.67189e-08
3.0277e-08
2.53619e-08
3.00958e-08
2.52857e-08
2.91975e-08
2.41101e-08
2.97863e-08
2.24023e-08
3.5989e-08
5.14418e-09
4.23902e-07
2.69411e-08
3.1497e-08
2.72956e-08
3.11552e-08
2.98331e-08
2.98856e-08
3.0238e-08
3.10643e-08
3.2029e-08
3.05035e-08
3.12589e-08
3.09103e-08
3.19352e-08
3.11498e-08
3.12112e-08
3.24077e-08
3.20969e-08
3.21001e-08
3.25911e-08
3.3125e-08
3.24182e-08
3.24702e-08
3.18457e-08
3.32117e-08
3.17104e-08
3.27283e-08
3.14771e-08
3.28369e-08
3.15281e-08
3.31241e-08
3.15177e-08
3.33397e-08
3.10442e-08
3.309e-08
3.11702e-08
3.22721e-08
3.10684e-08
3.28249e-08
3.03389e-08
3.24759e-08
3.02902e-08
3.17193e-08
3.00051e-08
3.15903e-08
2.877e-08
3.278e-08
2.82866e-08
3.17058e-08
2.76903e-08
3.10196e-08
2.66582e-08
3.02205e-08
2.51168e-08
3.04244e-08
2.52424e-08
3.03859e-08
2.37009e-08
2.95083e-08
2.25896e-08
3.50916e-08
5.25257e-09
4.20223e-07
3.10112e-08
2.76957e-08
3.08324e-08
2.81037e-08
3.22309e-08
2.69441e-08
3.27623e-08
2.93349e-08
3.274e-08
2.91517e-08
3.32996e-08
2.87464e-08
3.36048e-08
2.8797e-08
3.26263e-08
3.10748e-08
3.23654e-08
3.16784e-08
3.24574e-08
3.13884e-08
3.29653e-08
3.22721e-08
3.39328e-08
3.21555e-08
3.40513e-08
3.16517e-08
3.30792e-08
3.15556e-08
3.37267e-08
3.1464e-08
3.27381e-08
3.17685e-08
3.34348e-08
3.08941e-08
3.29543e-08
3.14263e-08
3.21988e-08
3.14031e-08
3.316e-08
3.05926e-08
3.26363e-08
3.00774e-08
3.11059e-08
3.02957e-08
3.21178e-08
2.90658e-08
3.26981e-08
2.87523e-08
3.15705e-08
2.76219e-08
3.1023e-08
2.66687e-08
3.06654e-08
2.54643e-08
3.03726e-08
2.52043e-08
2.97966e-08
2.44605e-08
2.94027e-08
2.26926e-08
3.39784e-08
5.67235e-09
4.17785e-07
2.64146e-08
3.16561e-08
2.75925e-08
3.10179e-08
2.92429e-08
2.94109e-08
3.0015e-08
3.08572e-08
3.20343e-08
3.02038e-08
3.11142e-08
3.071e-08
3.14555e-08
3.08444e-08
3.28199e-08
3.16055e-08
3.12884e-08
3.23283e-08
3.24458e-08
3.23415e-08
3.28915e-08
3.29778e-08
3.20483e-08
3.31228e-08
3.22108e-08
3.32605e-08
3.20906e-08
3.30741e-08
3.14475e-08
3.29576e-08
3.14994e-08
3.29905e-08
3.13685e-08
3.28183e-08
3.09457e-08
3.27923e-08
3.15464e-08
3.19799e-08
3.0974e-08
3.29681e-08
3.06699e-08
3.20933e-08
3.06565e-08
3.14928e-08
2.97868e-08
3.21665e-08
2.9463e-08
3.25276e-08
2.85113e-08
3.146e-08
2.79306e-08
3.08377e-08
2.6415e-08
3.095e-08
2.51856e-08
3.05602e-08
2.52469e-08
3.02589e-08
2.44927e-08
2.96172e-08
2.28952e-08
3.31908e-08
5.09389e-09
4.13812e-07
3.14008e-08
2.77989e-08
3.04122e-08
2.80211e-08
3.25127e-08
2.67012e-08
3.2398e-08
2.91044e-08
3.26153e-08
2.92293e-08
3.29222e-08
2.87303e-08
3.32149e-08
2.87084e-08
3.27303e-08
2.90156e-08
3.2554e-08
3.0926e-08
3.23183e-08
3.11515e-08
3.27369e-08
3.14754e-08
3.36019e-08
3.23708e-08
3.31435e-08
3.19687e-08
3.32996e-08
3.20977e-08
3.32154e-08
3.14623e-08
3.3656e-08
3.14418e-08
3.31154e-08
3.18796e-08
3.3665e-08
3.11351e-08
3.28012e-08
3.15202e-08
3.26055e-08
3.08801e-08
3.28484e-08
3.11881e-08
3.23902e-08
2.99112e-08
3.12121e-08
2.99626e-08
3.19329e-08
2.91038e-08
3.26178e-08
2.85944e-08
3.14139e-08
2.80119e-08
3.09207e-08
2.65085e-08
3.06763e-08
2.56142e-08
3.0832e-08
2.57102e-08
3.01891e-08
2.41799e-08
2.93206e-08
2.3416e-08
3.55533e-08
4.98147e-09
4.15198e-07
2.67961e-08
3.16698e-08
2.7927e-08
3.06819e-08
2.92848e-08
2.91618e-08
3.00756e-08
3.03691e-08
3.1952e-08
3.03108e-08
3.11522e-08
3.06362e-08
3.13044e-08
3.1004e-08
3.16405e-08
3.11051e-08
3.17493e-08
3.16532e-08
3.20127e-08
3.21188e-08
3.18307e-08
3.22992e-08
3.23002e-08
3.27128e-08
3.25681e-08
3.32733e-08
3.22934e-08
3.27586e-08
3.16568e-08
3.28704e-08
3.1162e-08
3.30497e-08
3.16696e-08
3.2922e-08
3.16551e-08
3.29115e-08
3.09803e-08
3.26851e-08
3.14182e-08
3.24388e-08
3.09638e-08
3.26456e-08
3.12624e-08
3.19936e-08
3.05632e-08
3.13791e-08
2.97924e-08
3.20756e-08
2.92527e-08
3.2476e-08
2.88437e-08
3.12572e-08
2.80063e-08
3.089e-08
2.63005e-08
3.12114e-08
2.6098e-08
3.09198e-08
2.55435e-08
2.99501e-08
2.42307e-08
2.92254e-08
2.23556e-08
3.73692e-08
5.21851e-09
4.08874e-07
3.12024e-08
2.76991e-08
3.02446e-08
2.75423e-08
3.24264e-08
2.66851e-08
3.19171e-08
2.86722e-08
3.25409e-08
2.92309e-08
3.31353e-08
2.90407e-08
3.34349e-08
2.87368e-08
3.35702e-08
2.91611e-08
3.23982e-08
3.02255e-08
3.26742e-08
3.03863e-08
3.28689e-08
3.18118e-08
3.26163e-08
3.15937e-08
3.31964e-08
3.21512e-08
3.30673e-08
3.23244e-08
3.34519e-08
3.17876e-08
3.32944e-08
3.14721e-08
3.37582e-08
3.16776e-08
3.33742e-08
3.17831e-08
3.34532e-08
3.13674e-08
3.25662e-08
3.16492e-08
3.22741e-08
3.12422e-08
3.25218e-08
3.09472e-08
3.19982e-08
3.02551e-08
3.11854e-08
2.9776e-08
3.25397e-08
2.91919e-08
3.24369e-08
2.90179e-08
3.10326e-08
2.83149e-08
3.0911e-08
2.65883e-08
3.07036e-08
2.61415e-08
3.12753e-08
2.57592e-08
2.98478e-08
2.48943e-08
2.91272e-08
2.21993e-08
3.62649e-08
5.31413e-09
4.10883e-07
2.72596e-08
3.1026e-08
2.77529e-08
3.06322e-08
2.87668e-08
2.89204e-08
2.95744e-08
3.0082e-08
3.21215e-08
3.05777e-08
3.07215e-08
3.09306e-08
3.15589e-08
3.11518e-08
3.1859e-08
3.08028e-08
3.20383e-08
3.16515e-08
3.13967e-08
3.19368e-08
3.1494e-08
3.1841e-08
3.18303e-08
3.23644e-08
3.26666e-08
3.2894e-08
3.26612e-08
3.32208e-08
3.23078e-08
3.29106e-08
3.19253e-08
3.30002e-08
3.16611e-08
3.29639e-08
3.18443e-08
3.24842e-08
3.15297e-08
3.31634e-08
3.11172e-08
3.26982e-08
3.15239e-08
3.26755e-08
3.12945e-08
3.22996e-08
3.1387e-08
3.17535e-08
3.02344e-08
3.12243e-08
2.9554e-08
3.22493e-08
2.93699e-08
3.23045e-08
2.88884e-08
3.08589e-08
2.81003e-08
3.08671e-08
2.6594e-08
3.07677e-08
2.65797e-08
3.04759e-08
2.60898e-08
2.97995e-08
2.44131e-08
2.89961e-08
2.2742e-08
3.62414e-08
5.52302e-09
4.07537e-07
3.08244e-08
2.75326e-08
2.98123e-08
2.69595e-08
3.23462e-08
2.64786e-08
3.15338e-08
2.86327e-08
3.24074e-08
2.93584e-08
3.29399e-08
2.95517e-08
3.29902e-08
2.92236e-08
3.29685e-08
2.90804e-08
3.24502e-08
2.92886e-08
3.19477e-08
3.01354e-08
3.22004e-08
3.08472e-08
3.28669e-08
3.14555e-08
3.26111e-08
3.15639e-08
3.26312e-08
3.24414e-08
3.30442e-08
3.23358e-08
3.32728e-08
3.16879e-08
3.3271e-08
3.14533e-08
3.32164e-08
3.19048e-08
3.33956e-08
3.18321e-08
3.31667e-08
3.14048e-08
3.22619e-08
3.16196e-08
3.27699e-08
3.11361e-08
3.24441e-08
3.11092e-08
3.17499e-08
2.99732e-08
3.12183e-08
2.95281e-08
3.2248e-08
2.94131e-08
3.24213e-08
2.93748e-08
3.08731e-08
2.80385e-08
3.09478e-08
2.6832e-08
3.04751e-08
2.66865e-08
3.1232e-08
2.57471e-08
2.97557e-08
2.43696e-08
2.88138e-08
2.26035e-08
3.45084e-08
5.79267e-09
4.066e-07
2.75959e-08
3.0463e-08
2.80206e-08
3.02264e-08
2.96327e-08
2.87605e-08
2.95022e-08
2.99457e-08
3.18519e-08
3.05385e-08
3.07846e-08
3.128e-08
3.02758e-08
3.13543e-08
3.16251e-08
3.08533e-08
3.19901e-08
3.11875e-08
3.1425e-08
3.18085e-08
3.13861e-08
3.21395e-08
3.14443e-08
3.2091e-08
3.17397e-08
3.2081e-08
3.31648e-08
3.2524e-08
3.24187e-08
3.35071e-08
3.25735e-08
3.28268e-08
3.1834e-08