/*--------------------------------*- C++ -*----------------------------------*\
| =========                 |                                                 |
| \\      /  F ield         | OpenFOAM: The Open Source CFD Toolbox           |
|  \\    /   O peration     | Version:  2206                                  |
|   \\  /    A nd           | Website:  www.openfoam.com                      |
|    \\/     M anipulation  |                                                 |
\*---------------------------------------------------------------------------*/
FoamFile
{
    version     2.0;
    format      ascii;
    arch        "LSB;label=32;scalar=64";
    class       volScalarField;
    location    "200";
    object      ducSensor;
}
// * * * * * * * * * * * * * * * * * * * * * * * * * * * * * * * * * * * * * //

dimensions      [0 0 0 0 0 0 0];

internalField   nonuniform List<scalar> 
93840
(
0.493324
0
0.483437
0.00428742
0
0.524517
0
0.519841
0
0.507538
0.515363
0
0.395503
0
0.515719
0
0
0
0.0148101
0
0.518401
0
0
0
0
0.027099
0
0.512002
0.0114083
0.00292308
0
0.380594
0
0.0298524
0
0.51045
0
0.00124785
0
0
0.305145
0
0.345478
0
0.517373
0.001842
0
0
0.00525634
0
0.269154
0
0.343804
0
0.512883
0
0.00732788
0
0
0
0
0.00310966
0
0.353943
0
0.522306
0.00471197
0
0
0
0.00251411
0.0178754
0.00617707
0.00212409
0
0.321875
0
0.517661
0
0.017146
0
0
0.00378839
0.0107989
0
0
0.0147465
0
0.329378
0
0.522893
0.00719441
0
0
0
0
0.0107242
0.00154459
0.0104898
0.0319907
0.00307835
0
0.31765
0
0.519608
0
0
0
0
0
0.00847726
0
0
0.0209786
0.00865555
0.0232957
0
0.323847
0
0.523874
0
0.00680708
0
0
0
0.00836814
0.00545171
0.031559
0.0071888
0.0129339
0.0411275
0
0
0.311815
0
0.520807
0.00899336
0.0165052
0
0
0.00153686
0
0
0.0256623
0
0.00887656
0.0209224
0
0.0188054
0
0.31544
0
0.524097
0.0155819
0
0
0
0
0.000579853
0.00638482
0.0245426
0
0.0200885
0.0304281
0.00705549
0.0202707
0.00803547
0
0.305451
0
0.521251
0
0
0
0
0
0
0.00711227
0.0289884
0
0.00231125
0.000461475
0.0192246
0.0140428
0.0128605
0.00166716
0
0.308338
0
0.523964
0.00536936
0.0101582
0
0
0.000123447
0.000285086
0.0202542
0.0136009
0.0230908
0.0228822
0.0110561
0.0242079
0.0029564
0.00414133
0.0529934
0.015073
0
0.300658
0
0.521456
0
0.0250327
0
0
0.00160872
0
0.00833847
0
0.0346313
0
0
0.0352997
0
0.00397858
0.0484031
0.0145275
0.0207913
0
0.303844
0
0.524033
0
0
0
0
0
0
0.0124603
0.00410273
0.0181446
0.00254392
0
0.00651349
0.00735064
0.0132707
0.00874389
0.0157809
0.046241
0.0153542
0
0.296847
0
0.521548
0.0170154
0
0
0
0
0
0.0011121
0.0255076
0.00853975
0.0365458
0.0062043
0
0.0134068
0.0361877
0.0340911
0.0414654
0.0186425
0.000786445
0.0336742
0
0.302781
0
0.523754
0.0163888
0.0115237
0.00129778
0
0
0.000748309
0.00264471
0.00542807
0.00747933
0
0.00455095
0
0.0330027
0
0.00653387
0
0.00368341
0.0189178
0.00996417
0
0
0.293828
0
0.520949
0
0
0
0
0
0
0.00426989
0.018579
0.00678284
0.000102408
0.0218966
0.000878393
0.0124693
0
0.00133177
0.0159785
0.0268956
0
0.0414738
0
0
0
0.29822
0
0.522569
0.0107863
0.0210976
0
0
0
0.0023088
0
0.0091806
0
0.0245715
0.0300724
0.0125015
0.0434593
0
0
0.0522611
0.0474162
0.0474034
0
0.0437198
0
0
0
0.28942
0
0.522302
0
0.0275913
0
0.00283675
0.000655439
0.00055042
0
0
0.00731197
0.0500494
0.0121486
0.0892722
0.0355402
0.0116214
0.0224096
0
0
0.0450576
0.0493412
0.0951954
0
0
0
0
0.2926
0
0.523562
0
0
0
0
0
0
0
0.0104648
0
0.0351349
0.00175595
0.0105975
0.010687
0
0.00568115
0.02735
0.0561627
0.00649508
0
0.0253231
0
0.0301656
0.0450056
0.0395644
0
0.281992
0
0.521721
0.00634617
0.0247017
0
0
0
0.00129796
0
0.0172478
0.0140192
0
0.0234861
0.0038538
0.00806246
0.00092853
0
0.00614447
0.00202683
0
0.0528866
0
0
0.0113938
0.0327028
0.0136396
0.0280061
0
0.284951
0
0.523488
0.011435
0
0
0.000810148
0
0.00328687
0
0.00675526
0.0238937
0
0.0510147
0.00959022
0.0167457
0.0175686
0.0175045
0
0.0200161
0.0118394
0.0195435
0.037016
0.0374737
0.0845854
0.0479229
0.0173744
0.0235833
0
0
0.275036
0
0.521628
0
0
0.0167657
0.0111183
0
0
0
0.00578529
0
0
0.00166204
0.0289018
0.0157596
0.00462391
0
0.0266854
0
0
0
0
0.0629755
0.0562828
0.0154987
0.0125483
0.0559973
0
0
0
0.2797
0
0.523703
0
0
0.0261505
0
0
0
0
0
0.0302781
0
0.0171557
0
0.0173751
0.0106657
0.0842571
0.0150859
0.072996
0
0
0
0
0.0384762
0
0.0017696
0
0
0.0122062
0
0
0.268144
0
0.521143
0
0
0
0
0
0
0
0
0
0
0.030259
0.0469226
0.0172463
0.008474
0
0
0
0
0
0.0200739
0.0396311
0.0448062
0.0525639
0
0.0980664
0.00782522
0
0.00809182
0
0
0.272164
0
0.51676
0
0.0336693
0.00163252
0
0
0
0
0.00140582
0.0153797
0.0344656
0.00877036
0
0.0526005
0.0164054
0
0.0368228
0.0216699
0
0
0.0052945
0
0.0164231
0
0.103596
0
0
0.0148348
0.0522857
0
0.050842
0
0.224115
0
0.529993
0.0367904
0.0450708
0
0
0
0
0.00176468
0
0.0641085
0.00223997
0.0186841
0
0.0128177
0
0.0335613
0
0.0142431
0.0782365
0
0
0.0310343
0
0.00450011
0
0.0123936
0.0763867
0.025326
0
0.0264741
0.0194102
0
0
0
0
0.528809
0.0378923
0
0
0.00387325
0
0
0
0
0.03604
0
0.0536891
0
0
0.00806486
0
0.0645782
0.0436758
0
0
0.00997884
0
0
0.0301897
0.0232721
0.0239647
0.0136802
0.023758
0.0397552
0
0
0.0559621
0
0.0148778
0
0
0.52848
0
0
0
0.00889603
0
0
0.00183489
0
0
0.0847725
0.0134279
0.0271391
0
0
0.0461402
0.0212708
0.0352294
0
0.075133
0
0.0184093
0
0.0200336
0.0171523
0.0411236
0.0704879
0.0459205
0
0.0316025
0
0
0.0436592
0.0172085
0.0244021
0.35608
0
0.524095
0
0
0.00950554
0
0
0
0
0
0.0357012
0
0.0233571
0
0.0292443
0
0.0157781
0
0.00656274
0.0394201
0
0.0399918
0.0142955
0.0185498
0
0.0798892
0
0.0891642
0
0.0540606
0
0.0233997
0.0559214
0
0.00982847
0
0
0.335827
0
0.522025
0.0445206
0
0
0
0
0
0.00276028
0
0.023392
0.0157683
0
0
0
0
0.0273458
0.0236366
0
0
0.053606
0.0714877
0.0319697
0
0.0335042
0.00406402
0.0762132
0
0.0495403
0
0.0816999
0
0
0.0437334
0.0082985
0
0.0310248
0
0.273233
0
0.532544
0.00615652
0.0325596
0.0421109
0
0.000313889
0
0
0
0.0602274
0.00247621
0.0441099
0.00525253
0
0
0.0686151
0.0117119
0.021229
0.0244891
0.00670666
0.0307463
0
0.0720513
0
0.0761941
0
0.175283
0
0.0652889
0
0.122271
0.0940218
0.0186101
0
0.0616492
0
0.0618484
0
0
0
0.528935
0
0.0359425
0
0
0.00644579
0
0
0
0
0
0.097524
0.0558887
0.0331801
0
0
0
0
0.0459496
0.100083
0
0
0
0.038763
0.0298303
0.0689051
0
0.166346
0
0.0576866
0
0.00235829
0.0335742
0.0491183
0.03415
0.0186735
0
0
0.0989129
0
0
0.528368
0.0492724
0
0
0
0
0
0
0
0.0216539
0.0491908
0.0201152
0
0
0.018746
0
0
0
0.0457756
0
0.181692
0
0.0471687
0
0.0440437
0
0.159317
0
0
0.00787367
0.0491518
0.0377119
0
0
0.0557776
0
0.0115783
0.0261321
0
0
0.35117
0
0.527143
0
0.0130903
0
0.00496199
0.00146761
0
0
0
0.0595857
0
0
0
0.00272157
0
0.0569016
0.0142887
0.0332586
0
0.0348938
0
0.109437
0
0.0514844
0
0.0653164
0
0.134717
0.0732869
0
0
0.0664652
0.0565716
0.0299556
0
0.0467556
0
0.051317
0.0602795
0.0012845
0
0.383086
0
0.527848
0
0
0.00303092
0
0.0117559
0
0.0052972
0
0.0195293
0.0149206
0.00657091
0
0.0687339
0
0
0.0962135
0
0.0667612
0
0.0656682
0
0.0282577
0
0.0731162
0.00709532
0.11557
0
0.0599083
0
0.0733448
0.0048044
0.0458189
0
0.0435402
0
0.0734519
0
0.0129678
0.0804868
0
0
0.356803
0
0.521362
0.0599168
0
0
0.0114502
0
0
0
0
0.0151226
0
0.0979499
0.0934361
0
0.028835
0.0335669
0
0
0
0.0484783
0
0.0474203
0
0.025657
0
0.0830118
0
0.100936
0.00666165
0.0366469
0.0399804
0.066267
0.0954401
0.0294172
0
0.0389192
0.000903239
0.0579765
0.0271943
0
0.0194883
0
0
0.278174
0
0.534348
0
0.026153
0
0
0.00364185
0
0
0
0.0251399
0
0.0305034
0
0.0438667
0
0
0.0705443
0
0.00496186
0
0.0568476
0
0.0622233
0
0.0283821
0
0.0808639
0
0.0640969
0
0.0524614
0.0403069
0
0.0476186
0.0569934
0
0.0485258
0.0272078
0.0783906
0.0220263
0
0.0148274
0.00797839
0
0
0
0.53178
0
0
0.0633638
0.00792431
0.00478355
0
0
0
0
0
0.00363134
0.0674108
0
0
0.053456
0
0.0882654
0
0.0747764
0.0967949
0.0454342
0
0.0900992
0
0.048004
0.0848089
0.0764142
0.10844
0.0234466
0.104211
0.0548283
0.0992712
0
0.0284288
0.100239
0
0.0557625
0.0370921
0
0.0572798
0
0.00281161
0.0180069
0.0999611
0.000282884
0
0.53317
0.0547748
0.023113
0
0
0.0146297
0
0
0
0.0307773
0
0.0598628
0
0.0467897
0
0
0.073254
0.0247315
0.0213013
0
0.001124
0
0.0431936
0
0.0449657
0
0.0728703
0
0.0432819
0.0307647
0.00559988
0.0409004
0.00806136
0.100169
0
0.00325554
0.0778893
0.036019
0.0412531
0.0970137
0
0.0500206
0.020474
0
0
0
0.376526
0
0.526899
0
0
0.0724882
0
0
0
0
0
0
0
0
0.0270523
0
0
0.0431704
0
0.0806333
0
0.0515345
0.136108
0
0
0.0487995
0
0.0364696
0
0.0603001
0.0657109
0.0171613
0.0739156
0.00247093
0.092213
0
0.0987659
0
0.0550324
0.0671018
0.0639066
0
0.0995852
0
0.0498982
0
0.032862
0
0
0.377538
0
0.527791
0
0.030478
0
0
0
0
0
0
0.0142751
0
0.0242522
0
0.0366907
0
0
0.0141831
0
0.0193289
0
0.00147357
0
0.0235104
0
0.0666136
0.0477557
0.0635623
0
0.046104
0.0409335
0.0150908
0.076198
0.020632
0.0928714
0
0.085003
0.00582771
0.0555244
0.0226944
0.0483869
0
0.099275
0
0.0722541
0.00612385
0
0.0213969
0
0.286155
0
0.534327
0.00982904
0.0176336
0
0
0.00821769
0
0
0
0
0
0
0.0153989
0
0
0.0207828
0
0.0705664
0.102002
0
0.146897
0
0
0.0457428
0
0.0613446
0
0.0692837
0.0898106
0
0.0532816
0.00468444
0.0947058
0
0.0903834
0
0.0744291
0
0.0453844
0.00133398
0.0885333
0
0.0954567
0
0.0480708
0
0
0
0
0
0
0.532719
0
0.00197412
0.00284402
0
0.0276105
0
0
0
0.00457227
0
0
0.0324502
0
0
0
0
0.0120498
0.0294688
0.0719508
0.0144666
0
0.0474984
0
0.0657337
0.0072246
0.0209696
0
0.0410509
0.00937794
0.00319629
0.0588925
0
0.100261
0
0.0672188
0
0.0598628
0
0.0663609
0
0.0948339
0
0.0181176
0
0.0137059
0
0.00232863
0
0.0545281
0.020009
0
0.529579
0.015758
0.0741175
0
0.008173
0
0
0
0
0
0.00514554
0
0
0
0
0.00537628
0
0.0285258
0
0
0
0.0507249
0
0.0488824
0
0.0412573
0.0927881
0
0.136561
0.0132375
0.063077
0.0190016
0.0869659
0
0.0839892
0
0.026966
0
0.0573216
0.0111769
0.0973521
0
0.0923851
0
0.0415722
0
0
0
0
0.0532719
0.0454039
0.37051
0
0.530368
0
0
0
0
0.0119319
0
0
0
0
0.0215119
0
0.0772689
0
0.0677725
0
0.00780556
0
0.0520203
0
0.0166456
0
0.0408128
0.0725376
0.071887
0.014629
0.0293534
0.0323374
0
0.0455046
0.000140728
0.0539603
0
0.0998379
0
0.0241872
0
0
0.0315496
0.0779456
0
0.0944955
0
0.0920736
0
0.0416757
0
0
0
0
0
0
0.379466
0
0.528069
0.0117671
0.00877411
0.00610659
0.0259106
0
0
0
0
0
0
0
0
0
0.016778
0.0170864
0
0.0335613
0
0.0432066
0
0.0863667
0.0235439
0.0524289
0
0.0226611
0.0854405
0
0.065293
0
0.0837218
0.0218696
0.0671402
0
0.0921685
0
0
0.00310651
0
0
0.0761225
0
0.0755866
0
0.0733305
0
0.0573154
0
0.0445577
0
0.0317812
0
0
0.374551
0
0.528085
0.00841978
0
0
0
0
0
0.00516152
0
0
0.0264492
0
0.0543302
0
0.0274979
0
0.0286045
0
0.0467662
0
0.0473408
0
0.0135068
0.00721927
0.0363228
0.0897828
0.0337828
0.0396683
0
0.0347002
0
0.0165807
0.0229464
0.084435
0
0.0651679
0
0
0.0409544
0.0213723
0
0.0692131
0
0.0399146
0
0.054184
0
0.0412338
0
0.0189848
0
0.057331
0
0
0.366349
0
0.526778
0
0
0.0133917
0.0326822
0
0.00269124
0
0
0
0
0
0.029032
0
0.00703964
0.141379
0
0.0503617
0
0.0306242
0
0.0589431
0
0.0025415
0.000481282
0.0494485
0
0.020919
0.0678669
0
0.0513555
0.0106615
0
0.00757892
0.0880505
0
0.00271433
0.0332685
0
0.05093
0.0121241
0
0.0569686
0
0.0148649
0
0.0250945
0
0.025623
0
0
0
0.00157179
0
0
0.350404
0
0.523181
0
0.0194162
0.0650627
0
0
0
0.00164379
0
0
0.0307091
0
0.100019
0
0.000202193
0
0
0
0
0
0.0492743
0.00514763
0.0583457
0.0303555
0.0490389
0
0.0504044
0.0152931
0
0.0497563
0
0.0455354
0.0379166
0
0
0.0995199
0
0
0.0409647
0
0.0401941
0.0187136
0
0
0
0.00604394
0
0
0.0155062
0.0181282
0
0.00790283
0.00051556
0.035599
0
0
0.26946
0
0.530989
0
0
0
0
0.00760716
0.00472803
0
0
0
0.00581016
0
0
0
0.0217205
0.123806
0.0588066
0
0.00210695
0.0128841
0.0269034
0.0112082
0.0487763
0.0417187
0
0.0331871
0.0233504
0
0.0670848
0
0.0502344
0
0.0226109
0.0506135
0
0
0.100843
0
0
0.0508331
0
0.0574177
0.0431279
0
0
0.0503967
0.000137612
0
0
0.0739063
0.0439941
0.00702367
0.0321002
0
0
0.0532498
0
0
0
0.527809
0.0212951
0.0220268
0.0585845
0
0
0
0
0.00307955
0
0.0309212
0
0.0999518
0.110227
0.00538693
0
0.0402911
0
0.000596641
0
0
0.030393
0
0.0529766
0.00366403
0.0152498
0.00131043
0.0547058
0
0
0
0.0521059
0
0
0.0454718
0.00288814
0
0.0273424
0.0334498
0
0.0794162
0
0.0451079
0.0454231
0.0194775
0
0.0303877
0
0
0
0.0481241
0.0664386
0
0.0358817
0
0
0.0481173
0
0
0
0.529667
0
0.0494551
0
0
0.0162049
0
0
0
0
0.00952598
0
0.0203458
0
0
0
0
0.019097
0.0224519
0
0
0
0.0679151
0
0.0400544
0
0.0847147
0
0.0617594
0
0.0419157
0
0.0295042
0
0
0.074036
0.0260988
0
0
0.0481117
0
0.0962072
0.00889819
0.0173342
0.0517817
0.00879869
0
0.0441748
0
0.025964
0.0147532
0
0.0794581
0
0.0318048
0
0.00941942
0.0538608
0
0.358626
0
0.524996
0.0270007
0
0
0
0.06906
0.00442059
0
0.00908547
0
0.0160901
0.000782724
0.0392154
0.0689913
0
0
0.00939784
0.10001
0.0264836
0
0.000376602
0.0491481
0.0357176
0
0
0.0443252
0
0.0430109
0
0.0722795
0
0
0
0.00325844
0.0131063
0
0.0772998
0.0273532
0
0
0.0647163
0
0.089524
0.0570949
0
0
0.0361678
0
0.0558735
0
0.0263532
0.0420783
0
0.0290006
0
0.0208676
0
0
0.0547736
0
0.355398
0
0.525915
0
0
0.0181007
0
0
0
0
0
0
0.00392435
0
0.0113797
0
0
0.178371
0
0.155285
0
0
0
0
0.000839169
0.0852314
0
0.0215117
0
0
0.0530373
0
0.0390501
0
0.0342268
0
0
0.0265965
0
0.0391756
0.0448127
0.0146167
0
0.0791392
0
0.051905
0.0508319
0
0
0.054731
0
0.0426639
0
0.0512588
0.0567159
0
0
0
0
0
0
0.048257
0
0.280463
0
0.528392
0.0426109
0
0
0
0.00831841
0
0
0
0
0
0.0163167
0.0193193
0
0.0824605
0
0
0.0976433
0.0473024
0.0406671
0
0.0569258
0
0.00224728
0.100076
0.0615952
0.0692756
0
0
0.0522011
0
0
0
0
0
0
0.0242068
0
0.016689
0.0555137
0.0293373
0
0.086591
0
0.0386168
0.0557079
0
0
0.0289464
0
0.0562298
0
0.0503213
0.0428349
0
0
0
0
0
0
0.0582067
0
0
0
0.528738
0
0
0.00823838
0
0
0
0.00751468
0
0
0.0131346
0
0
0
0
0
0.0998773
0.00394817
0
0
0.0580741
0.016614
0
0.0379554
0
0
0
0.105378
0
0
0.0304408
0.00975635
0
0.000812944
0.0193897
0.0138662
0
0.0364817
0
0
0
0.0931082
0
0.101646
0
0.00361349
0.0620742
0
0.00885804
0.048908
0
0.0710399
0
0.0223534
0.04458
0
0
0
0
0.0381595
0
0.0643652
0.0419363
0.0118075
0
0.526372
0
9.43566e-05
0
0.016856
0.00460291
0
0.00496013
0
0.00709512
0
0.0110703
0.00857615
3.10898e-05
0
0
0
0
0
0.0180687
0
0
0
0
0.0462649
0
0.00970139
0
0
0.0389993
0
0
0.0467832
0
0.0178194
0
0.0234694
0
0.0325983
0
0
0
0.0611552
0
0.10802
0
0.0014273
0.0684247
0
0.034592
0.0523457
0
0.104332
0
0
0
0.0100281
0
0
0
0.0741153
0
0.0644534
0.0576882
0.350907
0
0.526416
0.0117552
0
0
0.0333604
0
0.00965768
0.00962041
0
0
0.00172998
0
0
0
0
0
0.00535472
0.190949
0.0959687
0.0216131
0.0648601
0
0.0736168
0
0
0.0533468
0.0402368
0.0667037
0.00661838
0.0355342
0.0520326
0
0
0.0404642
0
0.0396722
0
0.0207087
0
0.0488039
0
0
0
0.0744435
0
0.0937738
0.0291989
0.0344235
0.0753483
0
0
0.04345
0
0.11558
0
0
0
0.0356519
0
0.0202198
0
0.0301501
0.00309738
0.0155568
0
0.370741
0
0.525565
0
0.0137319
0.0111451
0
0.0102818
0
0
0
0.00840036
0
0
0
0.0362128
0.023844
0
0.0999774
0
0
0
0
0.0349834
0
0.0144548
0.05939
0
0.0542712
0.046752
0
0.0151323
0.0370176
0.0264797
0.00434188
0
0.0507513
0
0.0138383
0.0190226
0.0323447
0
0.0446567
0
0
0
0.0954605
0
0.0689548
0.0484741
0.0140376
0.0688313
0
0
0.05101
0
0.0708342
0.0526644
0
0
0.0555245
0
0.0426496
0.0418253
0.0253115
0.0710232
0
0
0.371419
0
0.524463
0.0222897
0
0
0.0301821
0.0165637
0
0
0
0.00666642
0.0125172
0.0106844
0.0384735
0
0
0
0
0
0.096237
0
0
0
0
0
0
0
0
0.0499727
0.0145234
0
0
0.00734871
0.0428519
0.0168563
0
0.0615271
0
0
0
0.0411182
0
0.0485884
0
0
0
0.0937558
0
0.0595753
0.057139
0.0047951
0.0593141
0
0
0.0614092
0
0.033514
0.0602541
0.0139926
0
0.0690958
0
0.0316007
0.0565806
0.0572707
0.0263596
0
0
0.341026
0
0.522139
0
0.0273004
0
0
0
0
0
0.00787388
0.0144612
0
0
0.0230702
0
0.0626614
0
0.0379608
0
0
0
0
0
0.0565574
0
0.053654
0
0.0105049
0.0317141
0
0.0854336
0.0392648
0.0432646
0.00548708
0.030346
0.0237054
0
0.0600332
0
0
0.0369554
0.0351875
0
0.0460574
0.0109913
0.0114871
0
0.0739952
0.043481
0.0493286
0.0703674
0.00873384
0.0436974
0
0
0.0708806
0
0.030256
0.0316218
0.0329049
0
0.0823023
0.0274585
0.00717518
0.0605268
0
0.0566581
0
0
0.258273
0
0.527423
0.0198829
0.00665582
0.0312204
0.0231573
0
0.00400398
0
0
0
0.0044171
0
0
0
0
0
0.0610185
0
0.0466456
0.142099
0
0.058337
0.00634228
0
0
0.0463279
0
0.0605289
0.0426395
0
0.0472493
0.0343902
0.0212284
0
0.0393583
0.0492353
0
0.0810411
0.0203998
0
0.0417757
0.047896
0
0.0382204
0.0430642
0.00760327
0.0100716
0.0607773
0.056253
0.013818
0.0787485
0.00799235
0.036192
0
0.00302695
0.0804941
0
0.0180399
0
0.0310281
0
0.0814951
0.047919
0
0.0553096
0
0
0
0
0
0
0.525878
0
0.0171587
0
0
0.0340255
0.00621444
0
0.011571
0
0.00131474
0.00375343
0.03918
0.0521449
0.026286
0
0.018934
0.142403
0
0
0.0263529
0
0.0443079
0
0
0
0
0.000660823
0.0392233
0
0
0.0320942
0.0465244
0.0337015
0
0.00309033
0.0317325
0
0.0246373
0.0111698
0.0410681
0
0.0396863
0
0.0261326
0.0388115
0.0211024
0.0509661
0.0241711
0.0582158
0
0.0904412
0
0.0610959
0.00936781
0
0.0743493
0.0151487
0.00181417
0
0.0534865
0
0.0512725
0.0688116
0
0.0453144
0
0
0.0690831
0.0312356
0.00212609
0
0.524098
0.00645024
0.0325506
0.0115265
0
0.025688
0
0
0
0
3.6408e-05
0
0
0
0
0.170814
0
0
0
0.200145
0.0265342
0.0568969
0.0798648
0
0.0450861
0
0
0.0947149
0.0475766
0.017017
0.0286865
0
0.0157618
0.0472575
0.0563342
0
0
0.0417721
0
0.05574
0
0.0285476
0
0.0482316
0
0
0.0347172
0.0176505
0.0653449
0.0488428
0.0667742
0
0.0957415
0
0.0366871
0.0235273
0
0.060625
0.0325121
0
0
0.0803768
0
0.011601
0.0947734
0
0.0546487
0
0
0.0629676
0.0686906
0.345949
0
0.524141
0
0
0.0283995
0.00268481
0
0
0.00205626
0.00230904
0.00669789
0.0157633
0
0.0294279
0
0.0238499
0
0
0
0.0180561
0
0
0
0.0999986
0
0
0
0.0182361
0
0
0.00453518
0
0.0715154
0
0.0561837
0
0.0263408
0
0
0.0638713
0
0.04241
0.00309145
0.0542762
0.0159247
0.0611906
0.0195338
0
0.0503885
0
0.0630762
0.037193
0.0886707
0.00413013
0.0955675
0
0
0.0516755
0
0.0277442
0.0183325
0
0
0.0863697
0
0.00917719
0.0646929
0
0
0
0
0.00241905
0
0.346828
0
0.522878
0.0199424
0.0222435
0.00336436
0
0.10819
0.0111883
0
0
0
0.0084126
0
0
0
0.0343758
0
0.00329467
0.0388098
0.00121803
0
0.00866031
0.0179717
0
0
0.0388945
0
0
0.056283
0.0117597
0
0.0126554
0
0.0124927
0
0.0690507
0
0.00439122
0.0170492
0
0.0646379
0.00239836
0
0.00814179
0.0335247
0
0.0636291
0.00885949
0
0.045266
0
0.0672302
0
0.090005
0.00402032
0.0913654
0
0
0.0536167
0
0.0260398
0.0135148
0
0.00861801
0.085633
0
0.0124937
0.068121
0
0
0.00653944
0.00708652
0.0208079
0
0.269314
0
0.526443
0
0
0.0464725
0.0150694
0.0448735
0
0
0
0
0.0113657
0.0192125
0.00751785
0.099994
0
0
0.0170046
0
0
0.00753566
0.0218663
0
0.0255244
0.19978
0
0
0
0.0971577
0.0225159
0.0532932
0
0.0014605
0
0.101511
0
0.0308012
0
0
0.0353093
0
0.0691694
0.032715
0
0
0.0439039
0.0467119
0
0.0371098
0
0.0467567
0
0.06078
0
0.0880547
0
0.0774217
0
0
0.0484258
0.00595565
0.0481164
0.0584001
0
0
0.0809722
0.0241891
0
0.0319717
0
0
0.0192315
0
0.0691111
0
0
0
0.525114
0.0271366
0
0
0
0
0
0
0
0
0.00837515
0
0
0
0
0.0994867
0
0
0
0
0
0.179325
0.0494843
0.0728386
0
0
0
2.69912e-05
0
0.0243101
0
0
0.00403615
0
0.0425888
0
0.0593883
0
0
0.0544108
0
0.0755652
0.0459318
0
0.0344552
0.0361286
0.0374804
0
0.0364307
0
0.0581793
0.0276207
0.0689486
0.00811304
0.0979735
0
0.0626653
0
0.0133747
0.0436903
0.0103043
0.0490187
0.0404475
0
0
0.074167
0.0162995
0
0.0110559
0.0226664
0
0.0107891
0
0.0337458
0.0455377
0.0109514
0
0.52347
0.0376508
0
0.0828372
0
0.0167314
0.00766415
0
0
0
0.00590821
0
0
0
0
0
0.00876297
0
0.00772218
0.0225136
0
0
0
0.00455738
0
0.051483
0
0
0
0
0.0296006
0.000100879
0
0.0436669
0
0
0
0.0401054
0
0
0.0454349
0
0.024356
0.0446324
0
0.0607569
0.013911
0
0
0.0322062
0
0.0394072
0.0354735
0.0854122
0
0.0992413
0
0.0637559
0
0.049264
0.0365636
0.0265557
0.0530565
0
0.00044051
0.0108625
0.0740847
0.0189591
0
0
0.0834873
0
0.0210518
0
0.0261209
0.0146957
0.330831
0
0.523372
0
0
0
0
0.0428444
0
0
0
0
0.0359507
0
0.06383
0
0.0111974
0
0
0.144982
0
0
0
0
0
0
0.00459785
0
0.0483296
0
0
0.0289022
0
0
0.0589854
0
0
0
0.00846875
0
0
0.0105885
0
0.0533865
0
0.0377505
0.0552837
0
0.021909
0.0392503
0.0666031
0
0.0403356
0
0.0664125
0
0.0983509
0
0.0962775
0
0.0463406
0
0.0200964
0.0457185
0
0.0753614
0
0.0291805
0.0152231
0.0842209
0.0370122
0
0
0.140114
0
0.0435634
0
0.0391622
0
0.341184
0
0.522451
0.0638679
0.00458388
0.0364195
0
0
0
0
0
0
0
0
0
0
0.00182074
0.00573317
0.0281141
0
0
0.0200814
0.0209665
0
0.0997102
0
0
0
0
0
0
0.117388
0.0396478
0.0469486
0
0.0144218
0
0
0
0.0165605
0.00172082
0
0.0557319
0
0.0569274
0
0.0360375
0.0434197
0
0.0506639
0.0309963
0.0450374
0.00562187
0.0457065
0
0.0910534
0
0.0962944
0
0.0963017
0
0
0.0371799
0
0.0465637
0
0.0865184
0
0.0531321
0
0.0799629
0.0529831
0
0
0.118189
0
0.0471292
0
0.046286
0
0.330203
0
0.522187
0
0.0216623
0
0
0.014522
0.00421655
0
0
0
0.0232704
0.0116512
0.0322236
0
0
0
0
0.0507792
0
0
0
0
0.0171749
0
0.0311408
0
0
0
0
0.0481536
0
0.0264707
0.052202
0
0.0456323
0
0
0
0.0471427
0
0
0.0383507
0
0.0655493
0.0144222
0.0322026
0.0591452
0.00117176
0.0477637
0
0
0
0.0148922
0
0.100414
0
0.0989244
0
0.098783
0
0
0.0579647
0
0.0487121
0
0.1005
0.0367273
0.0457436
0.0262822
0.0459301
0.0613624
0
0
0.052897
0
0.0528307
0
0.0366554
0
0.320077
0
0.522478
0.0171377
0.0111738
0
0
0.00848442
0
0
0
0
0.00208829
0
0
0
0.0602354
0.0401124
0.0076314
0
0.0431318
0
0.0121561
0.0334259
0
0
0
0.0367891
0.031423
0
0
0
0
0
0
0
0
0.015858
0.0521842
0
0
0
0.0328692
0
0.0616198
0
0.0663514
0.0504653
0.0158434
0.051253
0.0028184
0.0620064
0.0112877
0.0223491
0.00112059
0.0145052
0
0.0867042
0
0.0904975
0
0.0968938
0
0
0.0670674
0
0.0590704
0
0.101755
0
0.0101783
0.0536182
0.0169571
0
0
0
0.0492701
0
0.0364025
0
0
0
0.31557
0
0.520126
0
0.0507749
0.00869845
0
0
0.00153071
0
0
0
0.0299293
0.0123984
0.052013
0
0
0.0781708
0
0.0915852
0
0.125477
0
0
0
0.213136
0.0183951
0
0
0
0
0
0
0
0
0
0
0
0
0.0158148
0
0
0
0.0209806
0
0.0431581
0.0520243
0.0258471
0.0421493
0.0128616
0.0847768
0
0.0676624
0.00284247
0.0531442
0.022031
0.0222423
0
0.0743418
0
0.0763619
0
0.090364
0
0
0.0642484
0
0.0823218
0
0.0849975
0.0132291
0
0.0533271
0
0
0.0490566
0
0.0600981
0
0.0401801
0.0388204
0.0215842
0
0.29746
0
0.521476
0
0
0
0.0112735
0.0201094
0
0
0.000715979
0
0.0170435
0
0.00302875
0.00274933
0
0.0555583
0.0140174
0
0
0
0
0
0
0
0
0
0.00583426
0
0
0
0
0
0
0
0
0
0
0
0.0612383
0.0383338
0.0385643
0
0.05241
0.0333518
0.0514556
0.0479995
0
0.0427555
0.019917
0.0903788
0
0.0849915
0
0.0144289
0.0391575
0.039491
0
0.0743814
0
0.0545004
0
0.0191554
0
0
0.0606848
0
0.0853576
0.0472621
0.0739927
0.0649934
0
0.058803
0
0
0.0891219
0
0.0612673
0
0.0427104
0
0.0243926
0
0.221502
0
0.523635
0.00167043
0.0406481
0
0.00072999
0.00665852
0
0
0
0
0.0205854
0.0122403
0.0522643
0
0.0928178
0
0
0.0737019
0.0396324
0
0
0
0
0.0372224
0
0.0142661
0
0.134089
0
0
0.0667865
0
0
0
0
0
0
0.0364831
0
0.0186138
0
0.0492001
0
0.0393203
0.0466292
0
0.0519514
0
0.0573169
0
0.0999264
0
0.0680947
0
0
0.0407724
0.00767965
0
0.0758983
0
0.0491589
0
0
0
0
0.0590945
0
0.0569659
0.0270179
0.0356841
0.0240693
0.00467454
0.0624428
0
0
0.111215
0
0.0667955
0
0.0312929
0.00674913
0.0359057
0
0
0
0.520214
0
0
0
0.0124894
0
0
0
0
0
0.0134941
0
0.0428388
0
0.0174617
0
0.0385818
0
0.100513
0
0.100133
0.0282451
0
0
0
0
0
0
0
0
0
0
0
0
0
0
0
0
0.0170908
0
0.0105899
0
0.0256149
0
0.0233648
0.0457529
0
0.0737235
0
0.0447944
0
0.0980339
0
0.0616173
0
0
0.0546617
0
0
0.0686729
0
0.0588825
0
0
0.00640681
0
0.0564879
0
0.0500206
0.0447501
0.0188467
0.0395486
0.00362061
0.0510169
0
0
0.0858863
0
0.0731274
0
0.045762
0.0286416
0.0499922
0.0773731
0
0
0.525435
0.00617894
0
0
0.0231635
0
0.0209027
0.00136777
0
0
0.0194244
0.00548498
0.0515618
0
0.0197095
0.0888123
0
0.155103
0.00126224
0
0.0284027
0
0.0622659
0.0261921
0.0243436
0
0
0
0
0
0.0234261
0
0
0
0
0.00999399
0
0
0
0.0347742
0
0.0401929
0
0.046367
0.0213163
0.0166245
0.0395238
0
0.0720774
0
0.0532925
0
0.0950181
0
0.0526526
0
0.0145191
0.086662
0.00500743
0
0.0360092
0
0.0108589
0
0
0.0148977
0
0.0589939
0.0110037
0.0464951
0.0824865
0.00243559
0.0349847
0
0.054948
0
0
0.0672616
0
0.0992026
0
0.0929958
0
0.0121779
0.0862554
0
0
0.523303
0.0016477
0
0.00415668
0.013102
0
0
0
0.00296702
0
0
0
0.0650695
0
0.0650053
0
0.0102368
0
0
0.100442
0
0.0741697
0.0162285
0
0.0286217
0
0.0452844
0
0.0521625
0.0238245
0
0.0119994
0
0
0.0405954
0
0.023936
0
0
0.0168662
0.0384937
0
0.00562228
0
0.0573423
0.0302039
0.00900658
0.0734993
0
0.0394321
0
0.054
0
0.0759527
0
0.04749
0
0
0.0828579
0.0263313
0
0
0
0
0
0
0.0457597
0
0.0641083
0.0241803
0.0227263
0.0844557
0
0.0374579
0
0
0.0311499
0
0.0771712
0
0.118508
0
0.144164
0
0.00326008
0.0954496
0.00643933
0
0.521624
0.00463207
0
0
0.0480755
0
0.0338805
0.00291638
0
0
0.0186943
0
0.0418682
0
0.0505461
0.0648092
0
0.0284444
0.0636176
0.000311129
0
0
0.028393
0
0
0
0
0.00958635
0
0
0
0.0194945
0.0418545
0.0384651
0
0.0476232
0.0140096
0.00468137
0
0
0.0112393
0.00719445
0
0.0387036
0.031964
0.0241944
0.0373839
0.00699825
0.0599113
0
0.052608
0
0.049083
0
0.0664929
0
0.0588127
0
0
0.0718849
0.0570417
0
0.00438238
0
0
0
0
0.0464106
0
0.0707816
0.0402818
0.00621532
0.0990913
0
0.0661362
0
0
0.0545665
0
0.094468
0
0.0890243
0
0.136926
0
0.0287274
0.0045594
0.328111
0
0.5219
0.0289119
0
0
0
0.00343908
0
0
0.00199331
0
0
0
0.0639429
0
0.0230523
0
0.0999508
0
0
0
0.0996311
0
0
0
0
0.0271135
0.0140793
0
0.0655132
0.0138985
0
0.0284944
0.00476332
0
0.0128217
0
0.0554478
0
0.0489576
0.00758271
0
0.0406727
0.00524616
0
0.015269
0.0998203
0
0.0472612
0
0.0513332
0
0.0423513
0
0.0669166
0
0.0479747
0
0.0410132
0.00131346
0
0.0679401
0.0949804
0
0.0436829
0
0
0.0208491
0
0.0472957
0
0.0638508
0.078337
0
0.0997981
0
0.0293539
0
0
0.0873683
0
0.101684
0.0108781
0.0238778
0.0103409
0.0674527
0.0394138
0.0108374
0
0.345079
0
0.52028
0
0
0
0.0335161
0
0.0125592
0
0
0
0.0271841
0
0.0291512
0
0.0702309
0.0669616
0.00231861
0
0.0995068
0.0251092
0
0.155439
0
0.0256724
0
0
0
0
0
0.150444
0
0.0381397
0.0194135
0
0.0219683
0
0
0.109379
0
0.0021769
0
0.0105825
0.00232764
0.0197243
0
0.0359851
0.0322958
0
0.0652017
0
0.044543
0
0.0235862
0
0.0330123
0
0.0482737
0
0.0246819
0.0373067
0
0.00310129
0.0919726
0
0.0117689
0
0
0.0372548
0
0.062285
0
0.00508109
0.0767118
0
0.0983327
0
0
0.0275181
0
0.117429
0
0.0961593
0.0588985
0.0198234
0.0383998
0.00817045
0.0841347
0
0
0.349405
0
0.521116
0
0.0528673
0
0
0
0
0
0
0
0
0
0.0232758
0
0.0999952
0
0.125944
0
0
0
0.134051
0
0
0
0.075396
0
0
0.0788866
0.016369
0
0
0
0.0188472
0.0652402
0
0
0.0259466
0.12296
0
0.0214424
0
0.00455386
0
0.00250597
0.0376278
0
0.0195578
0.0681269
0
0.0343192
0
0.0126557
0
0
0
0.0358313
0
0.00728088
0
0.0163165
0.0505593
0
0
0.0723597
0
0
0
0
0.0491904
0
0.070124
0
0
0.0635056
0
0.102515
0
0
0.044298
0
0.114148
0
0.0841202
0.0366046
0.0532477
0.0623523
0
0.068211
0
0
0.323835
0
0.518744
0.00409466
0.00707567
0.0530977
0.0159286
0.00760527
0
0
0
0
0.0139991
0
0.0430061
0
0
0
0
0
0.053908
0.0904264
0
0
0
0
0.0720761
0
0
0.0428125
0
0.0300632
0.0136759
0
0.0130189
0
0.0272427
0
0.0364192
0.0632859
0
0
0
0
0
0
0.0190772
0.0428567
0.0151762
0
0.0666758
0
0.0476204
0
0.0107774
0
0.0200105
0
0.0474423
0
0.0267996
0
0
0.0378581
0
0.00639788
0.074873
0
0
0
0
0.0409621
0
0.0782698
0
0
0.0410142
0
0.0942453
0
0
0.0403353
0
0.0993065
0.00584641
0.0724976
0.0596331
0.0125646
0.105302
0
0.0835281
0
0
0.243943
0
0.522247
0.0049855
0.00646034
0
0.00280526
0
0
0
0
0
0
0
0.0488345
0
0
0.151092
0
0.264474
0
0
0
0.159932
0
0
0.0883201
0.0999883
0.00800996
0
0.0288678
0.0574195
0
0
0.0821714
0.0425338
0
0
0
0.0352183
0.00991929
0.00988237
0.0431936
0
0
0.0269793
0
0
0.0457336
0.0502795
0
0.0679536
0
0.0458528
0
0.0148007
0.0274983
0.0502008
0
0.0447391
0
0.025735
0
0
0.0519147
0
0.00598532
0.0249385
0
0
0
0
0.0439416
0
0.0794872
0
0
0.0388291
0
0.0310036
0.00446178
0
0.0534399
0
0.093432
0.0434181
0.0656567
0.0654391
0
0.0907483
0
0.0778416
0
0
0
0
0.522415
0
0
0.0477521
0.0645746
0.0161635
0
0
0
0
0.0119972
0
0.0138573
0
0.0340139
0.180716
0
0
0
0.0547782
0.0994699
0
0
0.0999814
0
0.105654
0
0.0264329
0.0398833
0
0
0.0430743
0
0.0802844
0.0169972
0.0139376
0.0421171
0.00603707
0
0
0.0369582
0
0.0177584
0.00331804
0.0133988
0
0.0089734
0.0491125
0.0217262
0
0.0439629
0
0.0306048
0
0
0.0321067
0.0358375
0
0.0372752
0
0
0.0267581
0
0.0744711
0
0
0.0198502
0
0.0122808
0
0
0.0651861
0
0.0817639
0.00304235
0.0251675
0.0645004
0
0
0.0125336
0
0.0776283
0
0.0901663
0.0556112
0.0668702
0.072225
0
0.0663104
0.011988
0.0873779
0
0.0341345
0.00832742
0
0.518411
0
0
0
0
0
0.0148185
0.00394286
0
0
0
0
0.012851
0
0.00325475
0
0
0.016205
0.0891036
0.015093
0
0
0.0998118
0
0.317406
0
0
0.0497086
0
0
0.063192
0
0.0124889
0.0340019
0
0
0
0
0
0.0205848
0
0.0399558
0.00199749
0
0.0223207
0.0156918
0.00543665
0
0.0341794
0.0415702
0
0.0659604
0
0.0580619
0
0
0.0132096
0.0259192
0
0.0467763
0
0
0.0401348
0
0.0786873
0.00254056
0
0
0
0.0341099
0.00504464
0
0.0692958
0
0.0841485
0
0.0399464
0.0757513
0
0
0.0283925
0
0.0924083
0
0.081429
0.0467052
0.00169498
0.0611952
0
0.0488964
0
0.0996952
0
0.0349273
0.309097
0
0.520164
0.02085
0.0230175
0.0393603
0.0515135
0
0.0427988
0.00649715
0
0
0.00228426
0
0.0149402
0.0250695
0.0158194
0.0969089
0.0678755
0.122573
0
0.010578
0.0218675
0.00232015
0
0
0.00117869
0
0.00388276
0
0
0
0.0196091
0
0
0.0543966
0.0141735
0
0.0270587
0.0437398
0
0
0
0
0.0120731
0
0.0746843
0.00457191
0.0224237
0.00544406
0
0.0113643
0.0400071
0
0.0341715
0
0.00204709
0.0330278
0.0343383
0.0265732
0.0209399
0
0.0470321
0
0
0.0414894
0
0.0688981
0.0711361
0
0
0
0
0.0588603
0
0.0780079
0
0.0860907
0
0.024954
0.0705293
0.00931494
0
0.0422683
0
0.0940728
0
0.0737581
0.0548133
0
0.0446277
0
0.0096224
0
0.0943702
0
0
0.328026
0
0.519335
0
0.0139218
0.041774
0
0
0.00779662
0
0
0
0
0
0.0354327
0
0.0911373
0
0
0
0
0.0341545
0.00758252
0
0
0.22612
0.0135551
0
0
0
0.0836218
0
0.0701732
0
0
0
0
0.0124449
0.00416086
0.0198212
0.0382496
0.0548139
0.0401873
0
0
0
0
0
0
0.0085662
0.0130031
0.0166319
0.00929162
0.0136351
0
0.0175718
0
0
0.0190011
0.0360868
0
0.0439919
0
0.0177846
0
0
0.0543944
0
0.0314415
0.0284754
0
0.0163062
0
0
0.117428
0
0.0915728
0
0.0888433
0
0.00347899
0.0114104
0.0314989
0
0.046274