/*--------------------------------*- C++ -*----------------------------------*\
| =========                 |                                                 |
| \\      /  F ield         | OpenFOAM: The Open Source CFD Toolbox           |
|  \\    /   O peration     | Version:  2206                                  |
|   \\  /    A nd           | Website:  www.openfoam.com                      |
|    \\/     M anipulation  |                                                 |
\*---------------------------------------------------------------------------*/
FoamFile
{
    version     2.0;
    format      ascii;
    arch        "LSB;label=32;scalar=64";
    class       volScalarField;
    location    "200";
    object      nut;
}
// * * * * * * * * * * * * * * * * * * * * * * * * * * * * * * * * * * * * * //

dimensions      [0 2 -1 0 0 0 0];

internalField   nonuniform List<scalar> 
93840
(
3.99106e-07
1.35435e-11
4.04424e-07
6.46678e-08
4.93745e-12
3.74527e-07
2.22177e-09
4.32937e-08
2.14215e-10
2.96673e-07
5.14904e-08
1.47542e-08
5.13869e-08
2.32667e-09
2.53892e-07
2.10904e-08
2.87564e-08
1.44381e-08
6.03278e-08
3.94739e-09
2.08961e-07
3.26239e-08
2.07523e-08
3.60149e-08
8.95348e-09
4.24977e-08
5.10461e-09
2.44241e-07
2.6024e-08
2.8968e-08
2.31838e-08
4.30654e-08
1.37912e-08
4.61846e-08
4.14596e-09
2.17968e-07
3.30785e-08
2.16886e-08
3.07927e-08
2.46028e-08
3.60758e-08
1.68462e-08
3.64939e-08
4.14824e-09
2.46133e-07
2.79191e-08
3.31879e-08
2.25389e-08
2.99518e-08
2.35413e-08
3.29734e-08
2.18685e-08
3.52903e-08
3.92974e-09
2.27606e-07
3.3352e-08
2.45557e-08
3.21774e-08
2.5282e-08
2.9546e-08
2.49356e-08
2.6683e-08
2.27902e-08
3.40327e-08
4.46621e-09
2.48494e-07
2.75534e-08
3.29813e-08
2.39675e-08
3.30106e-08
2.54158e-08
2.8938e-08
2.41213e-08
2.91631e-08
2.31699e-08
3.11405e-08
4.11054e-09
2.25304e-07
3.23414e-08
2.58144e-08
3.34526e-08
2.75821e-08
3.06065e-08
2.61101e-08
2.90263e-08
2.54802e-08
2.73991e-08
2.31268e-08
3.21248e-08
4.21583e-09
2.41336e-07
2.70052e-08
3.14323e-08
2.54614e-08
3.28838e-08
2.633e-08
2.95965e-08
2.6171e-08
2.97543e-08
2.43849e-08
2.85165e-08
2.38563e-08
3.29192e-08
4.14021e-09
2.31547e-07
3.13047e-08
2.60644e-08
3.35886e-08
2.87649e-08
3.11545e-08
2.76579e-08
3.05408e-08
2.6337e-08
2.83808e-08
2.61275e-08
2.6841e-08
2.2428e-08
3.24377e-08
4.29998e-09
2.39924e-07
2.70008e-08
3.0808e-08
2.61211e-08
3.34317e-08
2.73084e-08
3.137e-08
2.7378e-08
3.01735e-08
2.60876e-08
2.94258e-08
2.37309e-08
2.83679e-08
2.34223e-08
3.13309e-08
4.13136e-09
2.30437e-07
3.12623e-08
2.6041e-08
3.33489e-08
2.90456e-08
3.16819e-08
2.93372e-08
3.05207e-08
2.73976e-08
3.04512e-08
2.67156e-08
2.81767e-08
2.57913e-08
2.69427e-08
2.30569e-08
3.24985e-08
4.31133e-09
2.36726e-07
2.68886e-08
3.03723e-08
2.56902e-08
3.32523e-08
2.75364e-08
3.23424e-08
2.7209e-08
3.10471e-08
2.67271e-08
2.99628e-08
2.60065e-08
2.91113e-08
2.37199e-08
2.82799e-08
2.31836e-08
3.23774e-08
4.33327e-09
2.299e-07
3.13204e-08
2.57872e-08
3.30296e-08
2.86139e-08
3.19681e-08
2.99891e-08
3.0678e-08
2.87026e-08
3.04076e-08
2.71248e-08
3.0131e-08
2.65068e-08
2.85262e-08
2.57098e-08
2.707e-08
2.24724e-08
3.1985e-08
4.47171e-09
2.3457e-07
2.74264e-08
3.08253e-08
2.60551e-08
3.28463e-08
2.78319e-08
3.26161e-08
2.76202e-08
3.22129e-08
2.66475e-08
3.0708e-08
2.6567e-08
2.99602e-08
2.58857e-08
2.9301e-08
2.3822e-08
2.81874e-08
2.36842e-08
3.15261e-08
4.40054e-09
2.28761e-07
3.1443e-08
2.61943e-08
3.23269e-08
2.84504e-08
3.18383e-08
2.96289e-08
3.10983e-08
2.90547e-08
3.00668e-08
2.84843e-08
3.04935e-08
2.67627e-08
2.99619e-08
2.65725e-08
2.83059e-08
2.51272e-08
2.68155e-08
2.28648e-08
3.23683e-08
4.4674e-09
2.34279e-07
2.72669e-08
3.07475e-08
2.60091e-08
3.20914e-08
2.78031e-08
3.21636e-08
2.87669e-08
3.21926e-08
2.76285e-08
3.10687e-08
2.61008e-08
3.08588e-08
2.64034e-08
2.97682e-08
2.57208e-08
2.91332e-08
2.36343e-08
2.77616e-08
2.31991e-08
3.21086e-08
4.46637e-09
2.30254e-07
3.26142e-08
2.66844e-08
3.23562e-08
2.88287e-08
3.202e-08
2.93652e-08
3.16466e-08
2.92266e-08
3.15391e-08
2.90574e-08
3.03309e-08
2.79858e-08
3.04343e-08
2.67229e-08
3.02703e-08
2.67658e-08
2.85274e-08
2.51052e-08
2.67987e-08
2.30189e-08
3.2081e-08
4.64937e-09
2.36338e-07
2.77926e-08
3.11939e-08
2.63037e-08
3.23774e-08
2.84602e-08
3.20931e-08
2.91315e-08
3.23647e-08
2.76655e-08
3.16311e-08
2.68045e-08
3.16558e-08
2.60604e-08
3.04356e-08
2.62845e-08
2.95634e-08
2.51362e-08
2.88052e-08
2.34693e-08
2.77228e-08
2.31979e-08
3.15074e-08
4.52932e-09
2.34238e-07
3.19792e-08
2.60555e-08
3.22332e-08
2.86218e-08
3.19586e-08
2.94504e-08
3.17097e-08
2.9194e-08
3.25303e-08
2.91626e-08
3.14087e-08
2.87223e-08
3.06876e-08
2.78048e-08
3.10077e-08
2.68609e-08
2.99605e-08
2.68936e-08
2.82456e-08
2.47564e-08
2.69938e-08
2.32956e-08
3.1348e-08
4.55059e-09
2.33535e-07
2.74144e-08
3.20691e-08
2.64879e-08
3.24697e-08
2.85344e-08
3.21297e-08
2.8924e-08
3.16957e-08
2.86518e-08
3.12212e-08
2.80004e-08
3.13393e-08
2.67302e-08
3.15483e-08
2.63108e-08
2.9826e-08
2.6158e-08
2.94446e-08
2.54792e-08
2.87723e-08
2.3539e-08
2.79274e-08
2.34453e-08
3.15919e-08
4.4596e-09
2.17846e-07
3.20785e-08
2.68495e-08
3.23654e-08
2.88189e-08
3.19817e-08
2.97389e-08
3.16522e-08
2.89739e-08
3.18669e-08
2.90426e-08
3.16022e-08
2.87108e-08
3.10189e-08
2.79313e-08
3.06722e-08
2.86455e-08
3.08521e-08
2.68371e-08
2.98264e-08
2.70016e-08
2.79115e-08
2.5178e-08
2.71848e-08
2.34793e-08
3.20842e-08
5.03254e-09
2.34591e-07
2.7303e-08
3.09991e-08
2.66167e-08
3.22656e-08
2.83968e-08
3.23578e-08
2.9188e-08
3.20021e-08
2.87592e-08
3.18077e-08
2.8068e-08
3.10549e-08
2.74936e-08
3.13869e-08
2.70103e-08
3.10841e-08
2.62542e-08
3.04029e-08
2.66026e-08
2.9319e-08
2.54128e-08
2.87274e-08
2.36972e-08
2.7092e-08
2.3524e-08
3.18575e-08
4.92784e-09
2.24521e-07
3.18584e-08
2.64908e-08
3.2226e-08
2.86001e-08
3.18146e-08
2.97198e-08
3.2009e-08
2.93088e-08
3.21105e-08
2.89054e-08
3.22652e-08
2.85547e-08
3.16041e-08
2.81305e-08
3.06897e-08
2.83024e-08
3.05876e-08
2.80836e-08
3.08244e-08
2.64035e-08
2.9729e-08
2.66828e-08
2.79685e-08
2.5214e-08
2.6857e-08
2.31988e-08
3.17641e-08
4.85213e-09
2.29783e-07
2.70697e-08
3.09314e-08
2.66634e-08
3.1863e-08
2.79818e-08
3.23712e-08
2.95224e-08
3.27764e-08
2.82407e-08
3.18415e-08
2.88558e-08
3.18824e-08
2.82534e-08
3.11785e-08
2.77509e-08
3.11836e-08
2.71076e-08
3.10724e-08
2.70888e-08
3.04911e-08
2.69795e-08
2.92725e-08
2.61126e-08
2.84719e-08
2.39217e-08
2.73539e-08
2.34052e-08
3.16667e-08
5.10723e-09
2.24446e-07
3.14939e-08
2.58707e-08
3.16884e-08
2.83573e-08
3.16352e-08
2.98176e-08
3.20704e-08
3.01262e-08
3.26377e-08
2.92102e-08
3.23527e-08
2.85964e-08
3.19074e-08
2.85109e-08
3.18414e-08
2.79289e-08
3.08272e-08
2.80711e-08
3.04918e-08
2.76535e-08
3.06015e-08
2.66941e-08
2.93219e-08
2.61359e-08
2.798e-08
2.50019e-08
2.72189e-08
2.34865e-08
3.09805e-08
5.10873e-09
2.27332e-07
2.65684e-08
3.12941e-08
2.6264e-08
3.12837e-08
2.75389e-08
3.21566e-08
2.92156e-08
3.24852e-08
2.85869e-08
3.21492e-08
2.89047e-08
3.2e-08
2.86955e-08
3.13658e-08
2.83097e-08
3.10785e-08
2.78845e-08
3.13247e-08
2.72021e-08
3.09842e-08
2.66202e-08
3.02162e-08
2.66999e-08
2.92111e-08
2.62005e-08
2.86286e-08
2.38771e-08
2.731e-08
2.37051e-08
3.16117e-08
5.10809e-09
2.23588e-07
3.13134e-08
2.6175e-08
3.07047e-08
2.82008e-08
3.10275e-08
2.92793e-08
3.17581e-08
3.08402e-08
3.21413e-08
2.96794e-08
3.24531e-08
2.92399e-08
3.19109e-08
2.85747e-08
3.21245e-08
2.81371e-08
3.15695e-08
2.75818e-08
3.12322e-08
2.81442e-08
3.09622e-08
2.7736e-08
3.0366e-08
2.67834e-08
2.91063e-08
2.56541e-08
2.7956e-08
2.54566e-08
2.73294e-08
2.31796e-08
3.17538e-08
5.35814e-09
2.25977e-07
2.67459e-08
3.03728e-08
2.57029e-08
3.09386e-08
2.69988e-08
3.15975e-08
2.8872e-08
3.2668e-08
2.93929e-08
3.20894e-08
2.84433e-08
3.22434e-08
2.85167e-08
3.1826e-08
2.85507e-08
3.12332e-08
2.84078e-08
3.1335e-08
2.78274e-08
3.13214e-08
2.7047e-08
3.10533e-08
2.70123e-08
3.00818e-08
2.73376e-08
2.92997e-08
2.61383e-08
2.89898e-08
2.38309e-08
2.77648e-08
2.36864e-08
3.10144e-08
5.6951e-09
2.23398e-07
3.07765e-08
2.559e-08
3.03523e-08
2.81099e-08
3.06911e-08
2.95347e-08
3.14038e-08
3.10437e-08
3.19097e-08
2.98898e-08
3.19552e-08
2.94833e-08
3.23315e-08
2.90286e-08
3.23465e-08
2.89047e-08
3.19945e-08
2.79425e-08
3.17681e-08
2.80705e-08
3.11087e-08
2.8595e-08
3.08001e-08
2.78312e-08
2.97581e-08
2.72482e-08
2.91812e-08
2.61941e-08
2.82604e-08
2.54076e-08
2.75406e-08
2.3379e-08
3.00457e-08
5.06571e-09
2.23634e-07
2.63996e-08
3.0352e-08
2.55362e-08
3.04799e-08
2.66179e-08
3.1016e-08
2.82621e-08
3.23735e-08
3.04587e-08
3.21412e-08
2.86493e-08
3.18768e-08
2.86843e-08
3.20575e-08
2.85311e-08
3.12408e-08
2.85464e-08
3.08257e-08
2.81391e-08
3.13291e-08
2.8058e-08
3.1665e-08
2.74179e-08
3.03931e-08
2.72769e-08
2.99457e-08
2.63334e-08
2.94156e-08
2.59595e-08
2.86977e-08
2.41767e-08
2.77047e-08
2.36803e-08
3.2399e-08
4.89674e-09
2.23051e-07
3.07455e-08
2.56276e-08
3.02415e-08
2.78407e-08
3.05246e-08
2.92151e-08
3.12032e-08
3.05676e-08
3.13935e-08
2.98002e-08
3.19166e-08
2.94396e-08
3.20014e-08
2.96651e-08
3.27025e-08
2.91999e-08
3.16905e-08
2.86117e-08
3.1596e-08
2.80328e-08
3.1244e-08
2.80501e-08
3.12311e-08
2.88231e-08
3.07262e-08
2.79372e-08
2.98683e-08
2.70828e-08
2.89756e-08
2.64043e-08
2.80111e-08
2.52111e-08
2.81377e-08
2.31089e-08
3.38283e-08
5.18185e-09
2.24301e-07
2.65016e-08
3.09255e-08
2.6099e-08
3.04671e-08
2.66167e-08
3.093e-08
2.83812e-08
3.22446e-08
2.97104e-08
3.24951e-08
2.91399e-08
3.22435e-08
2.87275e-08
3.17566e-08
2.87625e-08
3.17498e-08
2.87279e-08
3.14958e-08
2.91608e-08
3.11102e-08
2.84801e-08
3.15586e-08
2.83374e-08
3.0808e-08
2.70849e-08
3.03575e-08
2.70335e-08
2.9697e-08
2.69287e-08
2.90712e-08
2.58782e-08
2.871e-08
2.44336e-08
2.78441e-08
2.27678e-08
3.28461e-08
5.34345e-09
2.2025e-07
3.12082e-08
2.70089e-08
2.98534e-08
2.77171e-08
3.09221e-08
2.92739e-08
3.15539e-08
3.02768e-08
3.16737e-08
3.04355e-08
3.20294e-08
2.9448e-08
3.18706e-08
2.9513e-08
3.28063e-08
2.99e-08
3.21971e-08
2.90703e-08
3.12554e-08
2.89899e-08
3.20281e-08
2.85417e-08
3.15679e-08
2.89162e-08
3.09718e-08
2.89876e-08
3.04002e-08
2.77853e-08
2.98619e-08
2.7265e-08
2.90873e-08
2.66664e-08
2.84391e-08
2.45447e-08
2.77241e-08
2.31422e-08
3.2403e-08
5.90036e-09
2.21426e-07
2.73896e-08
3.07847e-08
2.6537e-08
3.09853e-08
2.73104e-08
3.0897e-08
2.89326e-08
3.19116e-08
2.91416e-08
3.25543e-08
2.93029e-08
3.23646e-08
2.8957e-08
3.20668e-08
2.88624e-08
3.19469e-08
2.85728e-08
3.21482e-08
2.87529e-08
3.13046e-08
2.80085e-08
3.11531e-08
2.85721e-08
3.11753e-08
2.7901e-08
3.04903e-08
2.77296e-08
3.02376e-08
2.74705e-08
2.92487e-08
2.70851e-08
2.88728e-08
2.57062e-08
2.86704e-08
2.44019e-08
2.77669e-08
2.33285e-08
3.07958e-08
5.15921e-09
2.17772e-07
3.0877e-08
2.74303e-08
2.99094e-08
2.83212e-08
3.12759e-08
2.92011e-08
3.18089e-08
2.98704e-08
3.16909e-08
3.0396e-08
3.15753e-08
3.00353e-08
3.20527e-08
2.98064e-08
3.19322e-08
2.92272e-08
3.238e-08
2.9505e-08
3.22892e-08
2.89073e-08
3.14079e-08
2.88287e-08
3.11524e-08
2.80839e-08
3.11507e-08
2.88234e-08
3.06083e-08
2.88391e-08
3.02649e-08
2.81246e-08
2.95973e-08
2.70142e-08
2.90736e-08
2.64682e-08
2.83441e-08
2.53142e-08
2.78212e-08
2.37092e-08
3.33547e-08
5.06636e-09
2.20697e-07
2.67949e-08
3.11451e-08
2.65307e-08
3.11517e-08
2.78239e-08
3.07138e-08
2.92738e-08
3.13497e-08
2.91338e-08
3.20316e-08
2.94223e-08
3.21244e-08
2.88555e-08
3.24642e-08
2.93e-08
3.17949e-08
2.88817e-08
3.16389e-08
2.92855e-08
3.16585e-08
2.87949e-08
3.11279e-08
2.88085e-08
3.10994e-08
2.87568e-08
3.07575e-08
2.90875e-08
2.99192e-08
2.83436e-08
2.98152e-08
2.7765e-08
2.94562e-08
2.71593e-08
2.89344e-08
2.60647e-08
2.85695e-08
2.43623e-08
2.79673e-08
2.3276e-08
3.50487e-08
5.34407e-09
2.17085e-07
3.20275e-08
2.73123e-08
3.06197e-08
2.85098e-08
3.14006e-08
2.88608e-08
3.1837e-08
2.99879e-08
3.14395e-08
3.05056e-08
3.1431e-08
3.10097e-08
3.20812e-08
3.01823e-08
3.17598e-08
3.00737e-08
3.22418e-08
2.96949e-08
3.16416e-08
2.94121e-08
3.16876e-08
2.96507e-08
3.1226e-08
2.88502e-08
3.09421e-08
2.88331e-08
3.05962e-08
2.96734e-08
3.02603e-08
2.89191e-08
3.01653e-08
2.78466e-08
2.95615e-08
2.72543e-08
2.87888e-08
2.64027e-08
2.80715e-08
2.47067e-08
2.7741e-08
2.26139e-08
3.34586e-08
5.53979e-09
2.18534e-07
2.72612e-08
3.1424e-08
2.75052e-08
3.10674e-08
2.81062e-08
3.04907e-08
2.98298e-08
3.08909e-08
3.03132e-08
3.14533e-08
2.95585e-08
3.19628e-08
2.9405e-08
3.16816e-08
2.90632e-08
3.11594e-08
2.90418e-08
3.16513e-08
2.94849e-08
3.1774e-08
2.97782e-08
3.12913e-08
2.88142e-08
3.0913e-08
2.89269e-08
3.05524e-08
2.98734e-08
3.04856e-08
2.90779e-08
3.01695e-08
2.81985e-08
2.96583e-08
2.76475e-08
2.94426e-08
2.68546e-08
2.88177e-08
2.60599e-08
2.84086e-08
2.47429e-08
2.75871e-08
2.35917e-08
3.30257e-08
5.6932e-09
2.16707e-07
3.09535e-08
2.73891e-08
3.02819e-08
2.81865e-08
3.14198e-08
2.8543e-08
3.20665e-08
2.92797e-08
3.16814e-08
3.00177e-08
3.12901e-08
2.9962e-08
3.18712e-08
3.0918e-08
3.23175e-08
3.09117e-08
3.20715e-08
3.06056e-08
3.16465e-08
3.01811e-08
3.16907e-08
3.00502e-08
3.15847e-08
2.9788e-08
3.09391e-08
2.93369e-08
3.05777e-08
2.92767e-08
3.06809e-08
2.9295e-08
3.02566e-08
2.86451e-08
2.98895e-08
2.78047e-08
2.9329e-08
2.74401e-08
2.859e-08
2.63223e-08
2.80648e-08
2.45877e-08
2.75261e-08
2.32185e-08
3.18417e-08
6.03574e-09
2.17334e-07
2.80187e-08
3.08762e-08
2.81777e-08
3.11428e-08
2.82451e-08
3.02011e-08
3.01921e-08
3.07046e-08
3.01502e-08
3.10715e-08
3.01637e-08
3.10264e-08
2.96843e-08
3.21637e-08
2.9157e-08
3.18447e-08
2.9735e-08
3.13374e-08
2.95794e-08
3.11941e-08
2.89544e-08
3.14176e-08
2.93424e-08
3.11982e-08
2.95159e-08
3.06231e-08
2.94693e-08
3.02874e-08
2.90155e-08
3.03572e-08
2.90174e-08
2.98016e-08
2.83346e-08
2.97489e-08
2.78668e-08
2.93309e-08
2.71072e-08
2.85529e-08
2.61418e-08
2.8713e-08
2.45468e-08
2.77771e-08
2.37624e-08
3.16348e-08
5.33021e-09
2.1578e-07
3.07901e-08
2.74817e-08
2.95005e-08
2.80239e-08
3.15333e-08
2.82534e-08
3.23444e-08
2.89723e-08
3.32988e-08
3.01647e-08
3.17139e-08
3.00295e-08
3.18941e-08
3.01483e-08
3.21286e-08
3.18224e-08
3.1815e-08
3.107e-08
3.14972e-08
3.05087e-08
3.18741e-08
3.04644e-08
3.16059e-08
3.01763e-08
3.14767e-08
3.00905e-08
3.07572e-08
2.95014e-08
3.06637e-08
2.92865e-08
3.03224e-08
2.91484e-08
3.01055e-08
2.83444e-08
2.95445e-08
2.79209e-08
2.89216e-08
2.72378e-08
2.85151e-08
2.62323e-08
2.85829e-08
2.42083e-08
2.7583e-08
2.37523e-08
3.40128e-08
5.25814e-09
2.1572e-07
2.72411e-08
3.03683e-08
2.70992e-08
3.08184e-08
2.83232e-08
2.98737e-08
3.02675e-08
2.98603e-08
3.06159e-08
3.08189e-08
3.04452e-08
3.12752e-08
2.98844e-08
3.13987e-08
2.95508e-08
3.169e-08
2.98326e-08
3.13696e-08
2.99967e-08
3.0935e-08
2.95002e-08
3.10712e-08
2.97317e-08
3.12123e-08
2.9737e-08
3.1176e-08
2.95611e-08
3.01935e-08
2.92119e-08
3.02257e-08
2.8972e-08
3.01937e-08
2.8652e-08
3.02724e-08
2.82159e-08
2.94224e-08
2.78548e-08
2.90265e-08
2.69214e-08
2.8928e-08
2.58978e-08
2.88827e-08
2.50133e-08
2.75924e-08
2.31274e-08
3.50295e-08
5.72306e-09
2.13511e-07
3.05992e-08
2.75955e-08
3.02312e-08
2.81061e-08
3.10304e-08
2.77613e-08
3.23437e-08
2.85986e-08
3.20956e-08
2.98164e-08
3.24313e-08
2.99832e-08
3.19201e-08
2.97294e-08
3.21355e-08
3.05258e-08
3.17558e-08
3.16892e-08
3.17631e-08
3.02311e-08
3.18029e-08
3.0447e-08
3.16746e-08
3.05165e-08
3.13283e-08
2.98748e-08
3.11663e-08
2.97425e-08
3.06674e-08
2.93121e-08
3.05326e-08
2.91566e-08
3.05934e-08
2.87441e-08
3.05457e-08
2.82389e-08
2.93592e-08
2.78094e-08
2.91816e-08
2.69478e-08
2.85683e-08
2.59996e-08
2.88494e-08
2.44968e-08
2.75248e-08
2.28157e-08
3.29955e-08
5.91293e-09
2.13788e-07
2.68935e-08
2.9456e-08
2.71481e-08
3.09244e-08
2.81239e-08
2.95792e-08
3.05068e-08
2.99224e-08
3.09044e-08
3.0897e-08
3.0524e-08
3.13038e-08
3.00078e-08
3.17145e-08
3.00514e-08
3.12379e-08
2.98527e-08
3.1769e-08
2.98984e-08
3.12793e-08
3.01619e-08
3.11011e-08
3.02667e-08
3.08644e-08
2.97621e-08
3.10168e-08
3.0507e-08
3.09248e-08
2.95521e-08
3.0088e-08
2.89884e-08
3.01619e-08
2.88783e-08
3.03728e-08
2.83753e-08
3.03642e-08
2.81327e-08
2.9202e-08
2.75743e-08
2.90545e-08
2.6727e-08
2.90726e-08
2.57103e-08
2.89065e-08
2.39018e-08
2.82153e-08
2.36022e-08
3.21823e-08
6.25827e-09
2.13567e-07
3.06589e-08
2.77998e-08
2.92622e-08
2.83286e-08
3.08834e-08
2.78001e-08
3.22193e-08
2.83174e-08
3.23551e-08
2.91885e-08
3.2692e-08
2.99551e-08
3.27434e-08
3.00166e-08
3.18003e-08
3.00297e-08
3.21337e-08
3.07512e-08
3.14491e-08
3.08513e-08
3.18829e-08
3.01831e-08
3.15059e-08
3.06594e-08
3.13146e-08
3.0564e-08
3.12529e-08
3.01332e-08
3.09932e-08
2.95399e-08
3.05331e-08
2.90654e-08
3.04114e-08
2.89043e-08
3.07552e-08
2.85112e-08
3.03467e-08
2.79639e-08
2.93664e-08
2.74946e-08
2.91709e-08
2.66729e-08
2.90423e-08
2.57609e-08
2.88615e-08
2.44638e-08
2.79882e-08
2.36989e-08
3.12387e-08
5.5362e-09
2.13449e-07
2.73016e-08
2.91141e-08
2.77388e-08
3.06215e-08
2.75202e-08
2.93442e-08
3.02446e-08
2.98358e-08
3.0878e-08
3.07928e-08
3.0375e-08
3.17329e-08
3.03631e-08
3.17201e-08
3.01519e-08
3.17408e-08
2.96939e-08
3.1185e-08
3.0339e-08
3.18965e-08
3.05537e-08
3.14858e-08
3.04576e-08
3.10397e-08
3.00985e-08
3.08286e-08
2.99844e-08
3.08573e-08
3.00044e-08
3.09076e-08
2.94592e-08
3.02266e-08
2.8902e-08
3.04075e-08
2.85389e-08
3.09713e-08
2.83977e-08
3.04688e-08
2.79654e-08
2.9307e-08
2.74177e-08
2.94975e-08
2.63556e-08
2.93166e-08
2.58779e-08
2.92253e-08
2.46702e-08
2.84848e-08
2.4128e-08
3.36179e-08
5.49466e-09
2.1206e-07
2.99439e-08
2.68569e-08
2.94181e-08
2.81183e-08
3.0642e-08
2.7652e-08
3.21653e-08
2.85407e-08
3.23998e-08
2.93003e-08
3.27124e-08
2.96304e-08
3.2546e-08
3.03766e-08
3.23619e-08
3.01706e-08
3.22884e-08
3.05368e-08
3.19922e-08
3.02374e-08
3.18892e-08
3.05719e-08
3.15144e-08
3.05265e-08
3.13361e-08
3.04721e-08
3.10182e-08
2.98761e-08
3.11823e-08
3.01321e-08
3.11274e-08
2.9186e-08
3.05778e-08
2.88374e-08
3.07113e-08
2.89299e-08
3.09718e-08
2.837e-08
3.03228e-08
2.77873e-08
2.95428e-08
2.72962e-08
2.90592e-08
2.65057e-08
2.9223e-08
2.57297e-08
2.86239e-08
2.49372e-08
2.83045e-08
2.31734e-08
3.49783e-08
5.7745e-09
2.13e-07
2.76549e-08
2.97079e-08
2.75316e-08
3.00551e-08
2.78742e-08
2.96229e-08
3.03382e-08
3.01251e-08
3.07818e-08
3.04238e-08
3.05757e-08
3.13109e-08
3.0305e-08
3.17901e-08
3.06323e-08
3.16662e-08
3.04514e-08
3.13786e-08
2.992e-08
3.14146e-08
3.02278e-08
3.14968e-08
3.05318e-08
3.14777e-08
3.01732e-08
3.09657e-08
3.03239e-08
3.08867e-08
3.00995e-08
3.08372e-08
2.97684e-08
3.08273e-08
2.91746e-08
3.05501e-08
2.85357e-08
3.07734e-08
2.85417e-08
3.0865e-08
2.81422e-08
3.03659e-08
2.7881e-08
2.95058e-08
2.70796e-08
2.94525e-08
2.653e-08
2.93027e-08
2.57179e-08
2.92472e-08
2.40649e-08
2.84191e-08
2.27215e-08
3.40216e-08
5.80738e-09
2.12177e-07
2.96434e-08
2.68661e-08
2.98228e-08
2.82668e-08
3.07368e-08
2.76605e-08
3.19467e-08
2.86761e-08
3.21534e-08
2.92472e-08
3.24968e-08
2.97206e-08
3.22998e-08
3.01319e-08
3.25484e-08
3.07907e-08
3.23112e-08
3.00896e-08
3.22034e-08
3.05507e-08
3.16701e-08
3.0819e-08
3.14408e-08
3.08741e-08
3.12857e-08
3.04196e-08
3.13027e-08
3.01148e-08
3.1357e-08
2.99537e-08
3.09876e-08
2.99153e-08
3.09054e-08
2.90128e-08
3.09331e-08
2.86739e-08
3.08566e-08
2.87985e-08
3.12009e-08
2.81079e-08
3.04177e-08
2.77395e-08
2.97815e-08
2.69988e-08
2.93008e-08
2.63799e-08
2.93904e-08
2.58537e-08
2.89115e-08
2.51082e-08
2.85529e-08
2.32972e-08
3.37304e-08
5.83159e-09
2.12288e-07
2.72101e-08
3.04562e-08
2.82862e-08
2.9802e-08
2.81042e-08
2.96806e-08
3.01585e-08
3.03333e-08
3.07005e-08
3.04394e-08
3.09204e-08
3.10426e-08
3.11273e-08
3.12754e-08
3.02221e-08
3.12764e-08
3.0886e-08
3.17055e-08
3.06215e-08
3.13136e-08
3.03388e-08
3.10838e-08
3.0179e-08
3.14448e-08
3.02632e-08
3.10448e-08
3.03228e-08
3.0971e-08
3.00778e-08
3.08414e-08
2.99848e-08
3.07223e-08
2.97604e-08
3.10247e-08
2.87889e-08
3.07757e-08
2.87012e-08
3.09144e-08
2.88678e-08
3.0783e-08
2.80757e-08
3.05985e-08
2.76155e-08
2.98173e-08
2.69294e-08
2.95178e-08
2.60466e-08
2.95209e-08
2.58118e-08
2.92974e-08
2.41572e-08
2.85291e-08
2.32335e-08
3.37791e-08
6.10455e-09
2.09731e-07
2.98668e-08
2.70438e-08
2.95205e-08
2.75261e-08
3.0814e-08
2.7607e-08
3.16723e-08
2.8882e-08
3.21607e-08
2.89149e-08
3.25434e-08
2.95386e-08
3.22407e-08
2.98853e-08
3.19925e-08
3.0637e-08
3.19544e-08
3.06663e-08
3.19994e-08
3.05903e-08
3.12617e-08
3.07051e-08
3.20179e-08
3.04791e-08
3.16067e-08
3.10049e-08
3.12922e-08
3.0236e-08
3.13067e-08
3.01793e-08
3.13007e-08
2.9939e-08
3.10974e-08
2.98091e-08
3.12525e-08
2.88471e-08
3.07375e-08
2.89788e-08
3.08443e-08
2.89237e-08
3.10465e-08
2.80189e-08
3.0655e-08
2.74208e-08
2.99797e-08
2.6791e-08
2.95056e-08
2.62608e-08
2.95449e-08
2.59924e-08
2.88592e-08
2.51228e-08
2.87086e-08
2.31016e-08
3.2772e-08
6.35061e-09
2.11353e-07
2.70914e-08
3.13505e-08
2.79048e-08
2.99476e-08
2.8746e-08
2.97019e-08
3.00365e-08
3.04514e-08
3.0851e-08
2.99302e-08
3.09158e-08
3.10372e-08
3.07795e-08
3.09217e-08
3.09658e-08
3.09519e-08
3.07055e-08
3.2071e-08
3.09233e-08
3.15243e-08
3.08966e-08
3.12721e-08
3.03083e-08
3.12217e-08
3.07731e-08
3.0986e-08
3.03676e-08
3.14039e-08
3.01831e-08
3.10574e-08
2.99034e-08
3.09189e-08
3.0131e-08
3.07848e-08
2.96248e-08
3.12383e-08
2.8798e-08
3.07244e-08
2.9023e-08
3.06303e-08
2.84851e-08
3.1377e-08
2.78948e-08
3.05663e-08
2.74822e-08
2.99603e-08
2.67652e-08
2.96036e-08
2.64489e-08
2.95353e-08
2.60292e-08
2.93101e-08
2.42917e-08
2.86664e-08
2.34837e-08
3.1755e-08
6.62676e-09
2.09214e-07
3.00969e-08
2.81695e-08
3.03349e-08
2.75631e-08
3.10427e-08
2.75536e-08
3.16235e-08
2.89559e-08
3.16102e-08
2.89302e-08
3.231e-08
2.90313e-08
3.16343e-08
2.95728e-08
3.15678e-08
3.02868e-08
3.16855e-08
3.05175e-08
3.18843e-08
3.07721e-08
3.19726e-08
3.04107e-08
3.18292e-08
3.07825e-08
3.10187e-08
3.03501e-08
3.12543e-08
3.07132e-08
3.14819e-08
3.00932e-08
3.12353e-08
3.01779e-08
3.1196e-08
3.01659e-08
3.10115e-08
2.95573e-08
3.1308e-08
2.90565e-08
3.08245e-08
2.92889e-08
3.06992e-08
2.88244e-08
3.08817e-08
2.79713e-08
3.05692e-08
2.75598e-08
3.01029e-08
2.70021e-08
2.94818e-08
2.61636e-08
2.92177e-08
2.58378e-08
2.86525e-08
2.51639e-08
2.90243e-08
2.35275e-08
3.08958e-08
6.09288e-09
2.08038e-07
2.74108e-08
3.01949e-08
2.78373e-08
3.00668e-08
2.90144e-08
2.95367e-08
2.98431e-08
3.03667e-08
3.06982e-08
2.95594e-08
3.06534e-08
2.999e-08
3.03994e-08
3.08595e-08
3.09108e-08
3.12966e-08
3.099e-08
3.14354e-08
3.08814e-08
3.1233e-08
3.05283e-08
3.15e-08
3.05513e-08
3.0825e-08
3.04665e-08
3.15177e-08
3.0393e-08
3.10803e-08
3.05173e-08
3.11451e-08
3.0126e-08
3.13015e-08
2.97625e-08
3.10617e-08
3.00183e-08
3.0972e-08
2.93122e-08
3.13841e-08
2.91221e-08
3.04572e-08
2.92821e-08
3.04602e-08
2.87232e-08
3.15654e-08
2.82753e-08
3.04853e-08
2.74787e-08
3.01258e-08
2.69566e-08
2.96253e-08
2.59676e-08
2.95568e-08
2.61792e-08
2.89372e-08
2.46457e-08
2.8897e-08
2.39357e-08
3.30972e-08
5.99687e-09
2.07197e-07
2.99252e-08
2.81483e-08
2.98264e-08
2.76649e-08
3.12589e-08
2.75292e-08
3.14142e-08
2.89346e-08
3.12683e-08
2.87051e-08
3.18686e-08
2.85554e-08
3.13723e-08
2.97874e-08
3.18796e-08
2.98659e-08
3.11504e-08
3.04381e-08
3.15257e-08
3.04158e-08
3.28061e-08
3.07204e-08
3.21604e-08
3.06422e-08
3.14856e-08
3.05937e-08
3.13186e-08
3.03532e-08
3.15005e-08
3.06203e-08
3.12734e-08
2.97597e-08
3.13675e-08
3.02326e-08
3.11248e-08
3.02735e-08
3.11027e-08
2.94443e-08
3.12654e-08
2.94068e-08
3.02768e-08
2.96769e-08
3.10065e-08
2.86594e-08
3.11795e-08
2.82509e-08
3.03662e-08
2.77577e-08
2.9995e-08
2.69957e-08
2.94681e-08
2.60345e-08
2.92781e-08
2.59123e-08
2.85487e-08
2.4811e-08
2.8972e-08
2.33393e-08
3.38962e-08
6.33722e-09
2.07945e-07
2.72498e-08
3.05279e-08
2.75983e-08
3.00705e-08
2.93169e-08
2.92046e-08
2.94691e-08
3.01162e-08
3.06094e-08
2.96724e-08
3.00052e-08
2.99705e-08
3.04884e-08
3.01366e-08
3.01093e-08
3.11335e-08
3.07754e-08
3.0686e-08
3.11207e-08
3.14757e-08
3.09613e-08
3.08184e-08
3.06027e-08
3.14438e-08
3.05091e-08
3.11129e-08
3.02981e-08
3.11601e-08
3.03747e-08
3.14758e-08
3.04548e-08
3.16084e-08
3.00533e-08
3.13862e-08
3.0058e-08
3.08089e-08
2.99886e-08
3.11812e-08
2.95412e-08
3.09294e-08
2.94442e-08
3.04942e-08
2.9203e-08
3.03652e-08
2.84609e-08
3.11591e-08
2.81338e-08
3.04e-08
2.76879e-08
2.98858e-08
2.69542e-08
2.93963e-08
2.58096e-08
2.95433e-08
2.58775e-08
2.95247e-08
2.44918e-08
2.87306e-08
2.3394e-08
3.31555e-08
6.44489e-09
2.06446e-07
3.00483e-08
2.80296e-08
3.0098e-08
2.80796e-08
3.08943e-08
2.72123e-08
3.10725e-08
2.89683e-08
3.10669e-08
2.86295e-08
3.16644e-08
2.82685e-08
3.19111e-08
2.84297e-08
3.12409e-08
2.99677e-08
3.09485e-08
3.04779e-08
3.1058e-08
3.02168e-08
3.1333e-08
3.09616e-08
3.21326e-08
3.0855e-08
3.21312e-08
3.04548e-08
3.13733e-08
3.0404e-08
3.19148e-08
3.03524e-08
3.10694e-08
3.04831e-08
3.16815e-08
2.9901e-08
3.13074e-08
3.02664e-08
3.07623e-08
3.03053e-08
3.14131e-08
2.97366e-08
3.11247e-08
2.92102e-08
2.995e-08
2.95141e-08
3.07806e-08
2.86603e-08
3.11118e-08
2.85203e-08
3.03114e-08
2.76313e-08
2.99407e-08
2.69758e-08
2.97142e-08
2.61377e-08
2.94941e-08
2.58335e-08
2.89775e-08
2.50983e-08
2.865e-08
2.34864e-08
3.21738e-08
6.93106e-09
2.05568e-07
2.691e-08
3.06197e-08
2.77366e-08
2.99728e-08
2.8902e-08
2.88567e-08
2.92875e-08
2.99724e-08
3.06013e-08
2.94447e-08
2.99969e-08
2.97899e-08
3.02033e-08
2.98248e-08
3.12193e-08
3.04322e-08
3.01166e-08
3.09304e-08
3.10245e-08
3.08561e-08
3.13694e-08
3.13324e-08
3.06644e-08
3.14322e-08
3.0835e-08
3.14974e-08
3.08121e-08
3.13876e-08
3.0328e-08
3.12239e-08
3.03777e-08
3.12941e-08
3.02616e-08
3.10852e-08
2.99416e-08
3.11344e-08
3.03617e-08
3.05529e-08
2.99694e-08
3.12963e-08
2.97282e-08
3.06524e-08
2.97645e-08
3.03249e-08
2.90527e-08
3.0808e-08
2.8987e-08
3.0977e-08
2.82943e-08
3.02358e-08
2.78457e-08
2.97936e-08
2.67714e-08
2.99504e-08
2.58908e-08
2.96063e-08
2.58897e-08
2.93246e-08
2.51139e-08
2.88626e-08
2.36955e-08
3.1377e-08
6.31392e-09
2.03911e-07
3.02817e-08
2.79922e-08
2.98283e-08
2.80138e-08
3.1057e-08
2.69943e-08
3.07934e-08
2.87886e-08
3.09919e-08
2.87158e-08
3.13388e-08
2.82945e-08
3.15809e-08
2.82697e-08
3.11736e-08
2.84306e-08
3.1121e-08
2.98844e-08
3.09961e-08
3.00325e-08
3.12594e-08
3.03635e-08
3.18917e-08
3.10119e-08
3.15339e-08
3.07701e-08
3.16001e-08
3.0777e-08
3.14785e-08
3.03615e-08
3.18188e-08
3.03015e-08
3.14124e-08
3.06027e-08
3.18855e-08
3.00824e-08
3.12096e-08
3.03146e-08
3.11358e-08
2.98961e-08
3.12161e-08
3.0119e-08
3.0984e-08
2.90751e-08
3.00792e-08
2.92566e-08
3.06098e-08
2.86653e-08
3.10888e-08
2.83567e-08
3.02176e-08
2.78772e-08
2.98783e-08
2.68604e-08
2.96925e-08
2.61944e-08
2.97951e-08
2.62138e-08
2.93389e-08
2.47938e-08
2.86196e-08
2.41705e-08
3.33353e-08
6.15201e-09
2.04885e-07
2.71454e-08
3.06659e-08
2.79669e-08
2.97427e-08
2.88733e-08
2.866e-08
2.93354e-08
2.96017e-08
3.05522e-08
2.9537e-08
3.00609e-08
2.97423e-08
3.00964e-08
3.0012e-08
3.03071e-08
3.00635e-08
3.04999e-08
3.04043e-08
3.07377e-08
3.07782e-08
3.05427e-08
3.08686e-08
3.08633e-08
3.10961e-08
3.11058e-08
3.15173e-08
3.09068e-08
3.11185e-08
3.04331e-08
3.1191e-08
3.00839e-08
3.13332e-08
3.04723e-08
3.12348e-08
3.04828e-08
3.11699e-08
2.99414e-08
3.10804e-08
3.02494e-08
3.0939e-08
2.99249e-08
3.10681e-08
3.0171e-08
3.0656e-08
2.96463e-08
3.02213e-08
2.91095e-08
3.06661e-08
2.88157e-08
3.09709e-08
2.85374e-08
3.01279e-08
2.78565e-08
2.98402e-08
2.67009e-08
3.01506e-08
2.65582e-08
2.99115e-08
2.60428e-08
2.91207e-08
2.48373e-08
2.86008e-08
2.31991e-08
3.51365e-08
6.40749e-09
2.02073e-07
3.01396e-08
2.78641e-08
2.96655e-08
2.7587e-08
3.10756e-08
2.7003e-08
3.04431e-08
2.84423e-08
3.09256e-08
2.87302e-08
3.14868e-08
2.85154e-08
3.17671e-08
2.8311e-08
3.18178e-08
2.86402e-08
3.10204e-08
2.93932e-08
3.12234e-08
2.94409e-08
3.13901e-08
3.06168e-08
3.10895e-08
3.04439e-08
3.15855e-08
3.0782e-08
3.14975e-08
3.09407e-08
3.17062e-08
3.05249e-08
3.15509e-08
3.03338e-08
3.19252e-08
3.04522e-08
3.16512e-08
3.0508e-08
3.16977e-08
3.02211e-08
3.10244e-08
3.04143e-08
3.07701e-08
3.01627e-08
3.09942e-08
2.98775e-08
3.07037e-08
2.93717e-08
3.00575e-08
2.91277e-08
3.10435e-08
2.87777e-08
3.0963e-08
2.86577e-08
2.99751e-08
2.81193e-08
2.98506e-08
2.69071e-08
2.97379e-08
2.65342e-08
3.01714e-08
2.62098e-08
2.90576e-08
2.54412e-08
2.85448e-08
2.29826e-08
3.41904e-08
6.50588e-09
2.03375e-07
2.74181e-08
3.01821e-08
2.78643e-08
2.981e-08
2.85994e-08
2.84573e-08
2.89108e-08
2.93662e-08
3.06794e-08
2.97404e-08
2.97355e-08
2.99583e-08
3.03433e-08
3.01188e-08
3.05706e-08
2.98012e-08
3.06877e-08
3.03885e-08
3.03048e-08
3.07169e-08
3.03909e-08
3.04999e-08
3.06173e-08
3.09205e-08
3.11123e-08
3.13292e-08
3.11513e-08
3.15137e-08
3.09439e-08
3.12736e-08
3.06973e-08
3.12653e-08
3.04842e-08
3.12886e-08
3.05657e-08
3.0851e-08
3.03459e-08
3.14236e-08
3.00352e-08
3.11621e-08
3.03435e-08
3.11195e-08
3.01843e-08
3.08173e-08
3.02524e-08
3.05141e-08
2.94103e-08
3.01257e-08
2.8949e-08
3.07822e-08
2.88982e-08
3.08621e-08
2.84887e-08
2.9841e-08
2.79272e-08
2.9794e-08
2.68964e-08
2.98028e-08
2.6892e-08
2.95498e-08
2.65e-08
2.9016e-08
2.49541e-08
2.84214e-08
2.35384e-08
3.42817e-08
6.72207e-09
2.0207e-07
2.99171e-08
2.77203e-08
2.9288e-08
2.72319e-08
3.09336e-08
2.68063e-08
3.01635e-08
2.83884e-08
3.08491e-08
2.88594e-08
3.13339e-08
2.89058e-08
3.13689e-08
2.87199e-08
3.13184e-08
2.85999e-08
3.09368e-08
2.86623e-08
3.06449e-08
2.93105e-08
3.06882e-08
2.98656e-08
3.12892e-08
3.03328e-08
3.11454e-08
3.03932e-08
3.11129e-08
3.10429e-08
3.14097e-08
3.09536e-08
3.15801e-08
3.04515e-08
3.15526e-08
3.02369e-08
3.15194e-08
3.06215e-08
3.1706e-08
3.06043e-08
3.14528e-08
3.02208e-08
3.07745e-08
3.03686e-08
3.11971e-08
3.00339e-08
3.09883e-08
3.00031e-08
3.05443e-08
2.91564e-08
3.01103e-08
2.89617e-08
3.07648e-08
2.89233e-08
3.10036e-08
2.89085e-08
2.99e-08
2.79007e-08
2.98652e-08
2.70511e-08
2.95604e-08
2.69413e-08
3.01516e-08
2.6217e-08
2.90477e-08
2.50048e-08
2.82083e-08
2.33993e-08
3.27535e-08
7.03444e-09
2.01952e-07
2.76422e-08
2.98285e-08
2.80594e-08
2.94043e-08
2.91028e-08
2.83381e-08
2.88558e-08
2.92778e-08
3.04702e-08
2.96811e-08
2.98053e-08
3.02617e-08
2.94285e-08
3.03278e-08
3.03491e-08
2.98368e-08
3.06781e-08
3.0066e-08
3.02767e-08
3.04729e-08
3.02246e-08
3.08242e-08
3.03732e-08
3.07202e-08
3.04639e-08
3.06923e-08
3.15831e-08
3.10522e-08
3.10135e-08
3.17462e-08
3.11292e-08
3.12107e-08
3.06337e-08
3.13217e-08