/*--------------------------------*- C++ -*----------------------------------*\
| =========                 |                                                 |
| \\      /  F ield         | OpenFOAM: The Open Source CFD Toolbox           |
|  \\    /   O peration     | Version:  2206                                  |
|   \\  /    A nd           | Website:  www.openfoam.com                      |
|    \\/     M anipulation  |                                                 |
\*---------------------------------------------------------------------------*/
FoamFile
{
    version     2.0;
    format      ascii;
    arch        "LSB;label=32;scalar=64";
    class       volScalarField;
    location    "200";
    object      nuTilda;
}
// * * * * * * * * * * * * * * * * * * * * * * * * * * * * * * * * * * * * * //

dimensions      [0 2 -1 0 0 0 0];

internalField   nonuniform List<scalar> 
93840
(
4.90632e-07
1.11057e-07
4.89875e-07
4.0738e-07
8.47236e-08
4.77032e-07
3.30362e-07
4.28672e-07
1.73007e-07
4.59804e-07
4.28804e-07
3.76387e-07
4.2617e-07
2.66081e-07
4.56648e-07
3.82225e-07
4.05357e-07
3.80307e-07
4.11446e-07
2.83474e-07
4.35601e-07
4.01094e-07
3.95101e-07
4.07683e-07
3.72679e-07
4.152e-07
3.17819e-07
4.57273e-07
3.96711e-07
4.01249e-07
3.92601e-07
4.13226e-07
3.86692e-07
4.12058e-07
2.93504e-07
4.35581e-07
4.00144e-07
3.89845e-07
4.01319e-07
3.94011e-07
4.07007e-07
3.87838e-07
4.12744e-07
2.98056e-07
4.56767e-07
3.97097e-07
4.07766e-07
3.97117e-07
3.99299e-07
3.95109e-07
4.06288e-07
3.88486e-07
4.12768e-07
2.92733e-07
4.42118e-07
3.99695e-07
3.93045e-07
4.02168e-07
3.95815e-07
4.00938e-07
3.96654e-07
3.98933e-07
3.92404e-07
4.10187e-07
3.04278e-07
4.57851e-07
3.96397e-07
4.01244e-07
3.94469e-07
4.02909e-07
3.9834e-07
3.99423e-07
3.97889e-07
4.02766e-07
3.89961e-07
4.04102e-07
2.9699e-07
4.40019e-07
3.99669e-07
3.94484e-07
4.00411e-07
3.97407e-07
3.99909e-07
3.99158e-07
4.01249e-07
3.95014e-07
4.0245e-07
3.94832e-07
4.07395e-07
2.99911e-07
4.525e-07
3.98063e-07
4.00456e-07
3.95486e-07
3.98493e-07
3.97484e-07
3.98924e-07
3.98649e-07
4.01912e-07
3.98686e-07
4.01719e-07
3.93631e-07
4.11288e-07
2.97599e-07
4.45152e-07
3.98226e-07
3.97299e-07
4.00258e-07
3.98989e-07
3.99024e-07
3.98759e-07
3.99204e-07
3.97633e-07
3.99275e-07
3.97219e-07
3.99908e-07
3.91759e-07
4.09766e-07
3.01079e-07
4.51775e-07
3.98279e-07
3.99258e-07
3.9738e-07
3.98431e-07
3.98267e-07
3.98817e-07
3.98802e-07
3.99977e-07
3.97956e-07
4.01427e-07
3.97899e-07
4.02088e-07
3.92316e-07
4.06613e-07
2.97207e-07
4.44674e-07
3.98457e-07
3.96876e-07
3.99943e-07
3.98483e-07
3.99024e-07
3.98512e-07
3.98568e-07
3.98425e-07
4.00447e-07
3.97984e-07
3.99829e-07
3.97629e-07
3.99909e-07
3.94425e-07
4.10464e-07
3.00795e-07
4.49749e-07
3.98229e-07
3.99361e-07
3.96372e-07
3.9857e-07
3.97155e-07
3.9861e-07
3.9845e-07
3.9915e-07
3.97615e-07
3.99916e-07
3.98076e-07
4.00386e-07
3.97445e-07
4.02447e-07
3.92285e-07
4.10356e-07
3.00335e-07
4.44725e-07
3.98247e-07
3.9794e-07
3.99631e-07
3.97634e-07
3.99695e-07
3.98543e-07
3.99132e-07
3.97911e-07
3.99806e-07
3.98552e-07
3.99792e-07
3.98107e-07
4.00785e-07
3.9801e-07
3.99518e-07
3.92331e-07
4.0889e-07
3.03021e-07
4.48565e-07
3.98338e-07
3.98611e-07
3.97412e-07
3.99648e-07
3.97857e-07
3.98318e-07
3.98419e-07
3.99874e-07
3.98345e-07
3.99342e-07
3.97513e-07
4.00186e-07
3.98239e-07
4.00791e-07
3.97871e-07
4.02874e-07
3.94187e-07
4.07472e-07
3.00967e-07
4.44358e-07
3.98428e-07
3.98034e-07
3.98881e-07
3.9807e-07
3.9899e-07
3.98574e-07
3.98872e-07
3.9793e-07
3.99493e-07
3.98459e-07
4.0033e-07
3.97853e-07
4.00424e-07
3.97679e-07
3.99774e-07
3.97016e-07
3.99365e-07
3.93714e-07
4.10137e-07
3.02333e-07
4.48996e-07
3.98225e-07
3.98686e-07
3.97868e-07
3.98597e-07
3.97692e-07
3.98428e-07
3.98552e-07
3.99274e-07
3.97831e-07
3.99131e-07
3.97329e-07
4.00476e-07
3.98249e-07
4.0001e-07
3.96652e-07
4.01152e-07
3.97213e-07
4.02506e-07
3.91794e-07
4.093e-07
3.01547e-07
4.46188e-07
3.98579e-07
3.97986e-07
3.98555e-07
3.98396e-07
3.98805e-07
3.98576e-07
3.98892e-07
3.97335e-07
3.99998e-07
3.97716e-07
4.00504e-07
3.97056e-07
3.99661e-07
3.97991e-07
4.01422e-07
3.98577e-07
4.0142e-07
3.97384e-07
4.00277e-07
3.93737e-07
4.08972e-07
3.04744e-07
4.51313e-07
3.98024e-07
3.98795e-07
3.98394e-07
3.99113e-07
3.98189e-07
3.98451e-07
3.98551e-07
4.00417e-07
3.96521e-07
3.9954e-07
3.97469e-07
4.00416e-07
3.9767e-07
3.99352e-07
3.96967e-07
4.00368e-07
3.96377e-07
4.00731e-07
3.97199e-07
4.02751e-07
3.91772e-07
4.06998e-07
3.01987e-07
4.50053e-07
3.98298e-07
3.97754e-07
3.98505e-07
3.97548e-07
3.9873e-07
3.98543e-07
3.98699e-07
3.97985e-07
4.01292e-07
3.98672e-07
4.00693e-07
3.97213e-07
4.0058e-07
3.97941e-07
4.00844e-07
3.98488e-07
4.00818e-07
3.98972e-07
4.00572e-07
3.96505e-07
4.00487e-07
3.94617e-07
4.06256e-07
3.02422e-07
4.4983e-07
3.98088e-07
3.98772e-07
3.98207e-07
3.9897e-07
3.97873e-07
3.98531e-07
3.98366e-07
3.98743e-07
3.97238e-07
3.98504e-07
3.97109e-07
3.99399e-07
3.97043e-07
3.99691e-07
3.97774e-07
3.98729e-07
3.96557e-07
4.00242e-07
3.96805e-07
4.00679e-07
3.983e-07
4.03726e-07
3.92928e-07
4.07046e-07
3.00111e-07
4.37774e-07
3.9858e-07
3.98333e-07
3.98594e-07
3.97515e-07
3.98624e-07
3.98334e-07
3.98488e-07
3.98326e-07
3.99281e-07
3.98427e-07
4.00055e-07
3.98332e-07
4.00916e-07
3.97346e-07
4.00058e-07
3.99091e-07
4.00564e-07
3.99302e-07
4.00339e-07
3.99525e-07
3.99585e-07
3.97408e-07
4.00301e-07
3.95323e-07
4.08583e-07
3.09482e-07
4.51458e-07
3.98192e-07
3.98549e-07
3.98336e-07
3.99168e-07
3.98539e-07
3.98831e-07
3.98337e-07
3.99324e-07
3.97691e-07
4.0001e-07
3.97053e-07
3.9962e-07
3.97311e-07
4.00098e-07
3.97648e-07
3.99173e-07
3.97289e-07
3.99777e-07
3.97714e-07
4.00303e-07
3.96758e-07
4.00728e-07
3.98247e-07
4.01084e-07
3.92862e-07
4.07813e-07
3.06964e-07
4.43918e-07
3.98431e-07
3.98383e-07
3.98823e-07
3.97997e-07
3.98597e-07
3.98095e-07
3.9872e-07
3.9732e-07
3.99988e-07
3.97111e-07
4.00031e-07
3.9786e-07
3.9994e-07
3.98207e-07
4.00938e-07
3.98233e-07
4.00331e-07
3.98698e-07
3.99761e-07
3.97418e-07
4.00873e-07
3.98955e-07
4.00225e-07
3.97895e-07
4.00071e-07
3.94342e-07
4.07357e-07
3.05764e-07
4.485e-07
3.9843e-07
3.9858e-07
3.97826e-07
3.9895e-07
3.98488e-07
3.98947e-07
3.98658e-07
4.00517e-07
3.96128e-07
4.00116e-07
3.97266e-07
3.99894e-07
3.97688e-07
3.9955e-07
3.97464e-07
3.99201e-07
3.97979e-07
3.99216e-07
3.9804e-07
3.99818e-07
3.97799e-07
3.99588e-07
3.97853e-07
4.00074e-07
3.98424e-07
4.01587e-07
3.92644e-07
4.07025e-07
3.08816e-07
4.44721e-07
3.98847e-07
3.9818e-07
3.99234e-07
3.9862e-07
3.98779e-07
3.98106e-07
3.98542e-07
3.98089e-07
4.01526e-07
3.98538e-07
4.00297e-07
3.97494e-07
3.99602e-07
3.9834e-07
4.00655e-07
3.97997e-07
4.00512e-07
3.98196e-07
4.00219e-07
3.9944e-07
4.0014e-07
3.98944e-07
4.00045e-07
3.98702e-07
4.00135e-07
3.97248e-07
4.00882e-07
3.95655e-07
4.04493e-07
3.08867e-07
4.4748e-07
3.9791e-07
3.98866e-07
3.97548e-07
3.98647e-07
3.98378e-07
3.99678e-07
3.98709e-07
3.98994e-07
3.97162e-07
3.98425e-07
3.97157e-07
4.00164e-07
3.97822e-07
3.99129e-07
3.97995e-07
3.99026e-07
3.97932e-07
3.99372e-07
3.97157e-07
3.99172e-07
3.96165e-07
3.98871e-07
3.97538e-07
3.99614e-07
3.97548e-07
4.00625e-07
3.979e-07
4.01755e-07
3.94201e-07
4.06639e-07
3.07717e-07
4.45021e-07
3.98554e-07
3.97782e-07
3.99089e-07
3.98617e-07
3.98477e-07
3.96766e-07
3.9845e-07
3.98566e-07
3.99181e-07
3.98599e-07
4.00565e-07
3.97623e-07
3.99277e-07
3.98114e-07
3.99799e-07
3.98469e-07
4.0011e-07
3.98407e-07
4.00718e-07
3.9858e-07
4.00351e-07
3.99533e-07
4.0023e-07
3.99118e-07
4.00044e-07
3.97906e-07
4.00026e-07
3.97262e-07
4.00678e-07
3.9415e-07
4.06843e-07
3.11436e-07
4.47388e-07
3.98133e-07
3.98835e-07
3.98145e-07
3.98695e-07
3.98456e-07
3.99263e-07
3.98858e-07
3.99055e-07
3.98079e-07
3.99754e-07
3.97481e-07
4.00372e-07
3.97898e-07
3.99515e-07
3.97968e-07
3.98879e-07
3.97555e-07
3.99438e-07
3.97928e-07
3.99183e-07
3.96083e-07
3.99925e-07
3.97676e-07
3.99782e-07
3.97127e-07
4.00404e-07
3.9842e-07
4.01104e-07
3.9809e-07
4.02231e-07
3.93729e-07
4.04136e-07
3.15083e-07
4.4573e-07
3.98387e-07
3.97413e-07
3.98485e-07
3.98459e-07
3.98405e-07
3.98547e-07
3.98373e-07
3.98516e-07
3.9948e-07
3.97937e-07
3.99468e-07
3.97357e-07
4.00026e-07
3.9803e-07
4.00482e-07
3.98393e-07
3.99837e-07
3.98547e-07
3.9989e-07
3.9814e-07
4.00803e-07
3.98508e-07
4.00006e-07
3.98505e-07
3.99371e-07
3.99439e-07
3.99525e-07
3.9784e-07
4.00011e-07
3.97488e-07
4.01127e-07
3.94962e-07
3.99547e-07
3.10594e-07
4.46287e-07
3.97992e-07
3.9936e-07
3.98418e-07
3.9845e-07
3.98319e-07
3.98351e-07
3.9858e-07
3.99012e-07
3.98253e-07
3.99753e-07
3.97711e-07
4.00206e-07
3.97831e-07
3.99917e-07
3.97836e-07
3.98424e-07
3.98138e-07
3.99601e-07
3.98098e-07
3.99579e-07
3.97908e-07
4.00271e-07
3.97823e-07
3.98256e-07
3.97909e-07
3.99485e-07
3.97219e-07
4.002e-07
3.9804e-07
4.00181e-07
3.98419e-07
4.01593e-07
3.94993e-07
4.04335e-07
3.06667e-07
4.46284e-07
3.98481e-07
3.97941e-07
3.98688e-07
3.98345e-07
3.98536e-07
3.98339e-07
3.98565e-07
3.98325e-07
3.99264e-07
3.98133e-07
3.99757e-07
3.97437e-07
3.99995e-07
3.97878e-07
4.00504e-07
3.984e-07
4.00003e-07
3.98293e-07
3.99263e-07
3.98347e-07
3.99048e-07
3.98262e-07
4.00462e-07
4.00066e-07
4.00151e-07
3.99179e-07
3.99614e-07
3.99236e-07
3.99604e-07
3.98359e-07
3.99996e-07
3.98181e-07
4.01757e-07
3.9625e-07
4.09566e-07
3.09775e-07
4.47766e-07
3.98307e-07
3.98837e-07
3.98556e-07
3.98745e-07
3.9853e-07
3.98644e-07
3.9875e-07
3.99048e-07
3.98043e-07
3.99494e-07
3.97502e-07
4.00391e-07
3.98116e-07
3.99594e-07
3.97568e-07
3.99338e-07
3.9861e-07
3.99172e-07
3.98616e-07
3.99081e-07
3.98102e-07
3.9963e-07
3.97327e-07
3.9849e-07
3.9683e-07
3.98856e-07
3.9785e-07
3.98999e-07
3.97627e-07
4.0006e-07
3.9856e-07
3.99405e-07
3.97169e-07
4.01274e-07
3.91675e-07
4.06938e-07
3.11255e-07
4.44951e-07
3.98687e-07
3.98068e-07
3.98947e-07
3.97978e-07
3.98725e-07
3.98798e-07
3.98966e-07
3.98861e-07
3.99996e-07
3.97917e-07
4.00446e-07
3.97932e-07
4.00143e-07
3.97646e-07
4.00778e-07
3.9855e-07
3.99307e-07
3.9773e-07
3.99677e-07
3.98228e-07
3.99878e-07
3.9857e-07
3.99871e-07
3.99403e-07
3.99687e-07
4.00185e-07
3.99213e-07
3.99078e-07
4.00002e-07
3.99006e-07
3.99849e-07
3.99523e-07
4.01036e-07
3.97563e-07
4.00214e-07
3.94985e-07
4.05621e-07
3.18043e-07
4.46277e-07
3.98419e-07
3.99322e-07
3.98592e-07
3.99514e-07
3.98936e-07
3.98992e-07
3.99043e-07
3.98932e-07
3.98439e-07
3.9964e-07
3.97853e-07
3.99505e-07
3.97554e-07
4.0007e-07
3.97727e-07
3.99545e-07
3.98249e-07
3.99709e-07
3.98281e-07
3.99722e-07
3.97483e-07
3.99084e-07
3.98071e-07
3.99318e-07
3.97289e-07
3.99134e-07
3.96777e-07
3.99159e-07
3.97963e-07
3.98535e-07
3.98088e-07
3.98925e-07
3.97586e-07
4.00057e-07
3.9819e-07
4.00943e-07
3.93429e-07
3.99519e-07
3.11476e-07
4.43689e-07
3.98701e-07
3.98411e-07
3.99256e-07
3.98473e-07
3.98999e-07
3.99006e-07
3.98913e-07
3.98713e-07
3.99371e-07
3.98063e-07
3.99913e-07
3.98141e-07
4.00265e-07
3.97925e-07
4.00312e-07
3.9851e-07
3.99434e-07
3.98427e-07
4.00259e-07
3.97912e-07
4.0003e-07
3.98822e-07
3.99737e-07
3.98691e-07
3.9965e-07
3.99794e-07
4.00754e-07
3.99334e-07
3.99724e-07
3.9898e-07
4.001e-07
3.98977e-07
3.99499e-07
3.98921e-07
4.00561e-07
3.97329e-07
4.01509e-07
3.96616e-07
4.052e-07
3.08888e-07
4.46496e-07
3.9815e-07
3.98877e-07
3.98141e-07
3.99286e-07
3.99138e-07
3.98959e-07
3.9863e-07
3.98582e-07
3.98443e-07
3.99749e-07
3.97966e-07
4.00303e-07
3.98163e-07
4.00574e-07
3.97621e-07
3.99316e-07
3.98441e-07
3.99186e-07
3.9882e-07
3.99368e-07
3.97384e-07
3.99494e-07
3.97378e-07
3.99459e-07
3.98321e-07
3.99052e-07
3.97143e-07
3.99237e-07
3.98244e-07
3.9859e-07
3.98378e-07
3.98856e-07
3.98184e-07
3.99603e-07
3.97238e-07
4.00606e-07
3.97172e-07
4.02389e-07
3.94193e-07
4.11461e-07
3.11685e-07
4.44042e-07
3.98888e-07
3.98283e-07
3.98853e-07
3.98312e-07
3.98742e-07
3.98607e-07
3.9849e-07
3.98584e-07
3.99268e-07
3.97897e-07
3.99925e-07
3.98098e-07
3.99898e-07
3.9917e-07
4.00254e-07
3.98532e-07
4.0015e-07
3.98299e-07
3.99255e-07
3.98431e-07
4.00681e-07
3.98674e-07
4.00109e-07
3.9913e-07
3.99632e-07
3.9854e-07
3.99298e-07
3.99138e-07
3.98977e-07
3.9888e-07
4.00013e-07
3.9855e-07
3.99847e-07
3.98809e-07
3.99532e-07
3.9887e-07
4.00057e-07
3.97831e-07
4.00621e-07
3.92785e-07
4.06845e-07
3.1337e-07
4.45683e-07
3.98084e-07
3.98794e-07
3.98534e-07
3.99175e-07
3.98458e-07
3.98405e-07
3.98449e-07
3.99051e-07
3.98427e-07
3.99558e-07
3.97531e-07
3.99539e-07
3.98299e-07
3.99127e-07
3.97484e-07
3.97779e-07
3.98476e-07
3.99523e-07
3.98397e-07
3.99516e-07
3.98283e-07
3.99208e-07
3.97979e-07
3.99186e-07
3.98048e-07
3.98967e-07
3.98631e-07
3.99336e-07
3.98409e-07
3.99464e-07
3.97693e-07
3.98779e-07
3.98331e-07
3.99403e-07
3.97658e-07
4.00057e-07
3.9748e-07
4.00237e-07
3.97448e-07
4.00246e-07
3.94436e-07
4.06266e-07
3.14462e-07
4.44657e-07
3.98444e-07
3.97932e-07
3.98667e-07
3.97466e-07
3.98321e-07
3.98438e-07
3.98894e-07
3.9756e-07
3.99846e-07
3.98067e-07
4.00261e-07
3.97615e-07
3.99924e-07
3.98747e-07
4.00348e-07
3.99342e-07
4.01598e-07
3.99014e-07
3.9956e-07
3.99736e-07
3.99407e-07
3.99008e-07
4.00172e-07
3.98654e-07
3.99868e-07
3.98578e-07
3.99726e-07
3.98425e-07
3.99872e-07
3.98514e-07
3.99823e-07
3.98812e-07
3.99378e-07
3.98567e-07
3.99416e-07
3.99119e-07
3.99589e-07
3.98831e-07
3.9993e-07
3.98559e-07
4.00467e-07
3.94069e-07
4.02867e-07
3.18273e-07
4.45551e-07
3.97132e-07
3.98784e-07
3.98648e-07
3.99854e-07
3.98613e-07
3.98742e-07
3.98748e-07
4.00208e-07
3.95437e-07
3.996e-07
3.97912e-07
4.00102e-07
3.97927e-07
3.99348e-07
3.97931e-07
3.99729e-07
3.98445e-07
3.98385e-07
3.9792e-07
3.98146e-07
3.97557e-07
3.98992e-07
3.97763e-07
3.98796e-07
3.97995e-07
3.99366e-07
3.98e-07
3.99079e-07
3.9795e-07
3.99249e-07
3.98277e-07
3.98889e-07
3.9847e-07
3.99339e-07
3.98506e-07
3.99941e-07
3.97936e-07
3.99479e-07
3.98038e-07
4.00585e-07
3.97115e-07
4.00751e-07
3.94703e-07
4.01532e-07
3.11775e-07
4.44712e-07
4.00193e-07
3.97693e-07
3.98183e-07
3.97783e-07
3.98749e-07
3.98725e-07
3.98647e-07
3.98515e-07
4.02769e-07
3.99297e-07
3.99738e-07
3.98034e-07
4.00089e-07
3.98166e-07
4.00415e-07
3.99532e-07
4.0033e-07
3.98594e-07
4.0022e-07
3.98863e-07
4.00758e-07
3.99094e-07
4.0026e-07
3.98423e-07
3.99931e-07
3.98701e-07
4.00066e-07
3.98359e-07
4.00459e-07
3.98429e-07
3.99333e-07
3.99225e-07
3.99376e-07
3.98781e-07
3.99155e-07
3.98536e-07
3.99013e-07
3.98837e-07
3.99405e-07
3.98512e-07
4.00526e-07
3.97464e-07
4.01302e-07
3.96366e-07
4.07077e-07
3.09906e-07
4.45123e-07
3.97478e-07
3.9957e-07
3.98619e-07
3.98614e-07
3.98836e-07
3.98691e-07
3.98664e-07
3.98569e-07
3.97117e-07
3.98097e-07
3.97294e-07
3.9965e-07
3.98464e-07
3.99663e-07
3.98378e-07
3.98966e-07
3.98519e-07
3.99264e-07
3.98977e-07
3.98327e-07
3.9974e-07
3.9823e-07
3.9833e-07
3.99433e-07
3.98655e-07
3.99349e-07
3.98211e-07
3.98587e-07
3.98172e-07
3.99181e-07
3.97984e-07
3.99037e-07
3.97937e-07
3.99546e-07
3.98179e-07
3.99198e-07
3.98385e-07
3.99407e-07
3.97949e-07
3.99838e-07
3.97607e-07
4.00564e-07
3.97585e-07
4.00417e-07
3.94188e-07
4.11119e-07
3.14884e-07
4.4382e-07
3.98662e-07
3.97992e-07
3.99077e-07
3.98586e-07
3.98797e-07
3.98576e-07
3.98569e-07
3.98657e-07
3.98684e-07
3.98725e-07
4.00865e-07
3.98413e-07
3.99664e-07
3.98118e-07
3.99748e-07
3.98059e-07
3.99669e-07
3.98644e-07
4.00585e-07
3.98258e-07
4.00394e-07
3.97828e-07
4.00633e-07
3.98984e-07
3.99635e-07
3.98098e-07
3.99758e-07
3.98521e-07
4.00058e-07
3.98742e-07
4.00238e-07
3.98822e-07
3.99872e-07
3.9887e-07
3.99465e-07
3.98444e-07
3.99282e-07
3.98625e-07
3.99585e-07
3.98467e-07
3.99397e-07
3.98075e-07
4.00734e-07
3.97613e-07
4.00185e-07
3.92689e-07
4.05448e-07
3.16907e-07
4.44463e-07
3.97516e-07
3.99001e-07
3.97779e-07
3.98544e-07
3.98725e-07
3.98575e-07
3.98626e-07
3.98754e-07
3.98339e-07
3.99677e-07
3.98007e-07
3.9966e-07
3.97356e-07
4.00155e-07
3.98546e-07
3.99918e-07
3.97715e-07
3.99795e-07
3.98192e-07
3.99313e-07
3.98918e-07
3.98619e-07
3.98892e-07
3.98303e-07
3.9778e-07
3.99271e-07
3.98712e-07
3.9927e-07
3.98455e-07
3.98602e-07
3.97995e-07
3.99247e-07
3.98142e-07
3.98754e-07
3.97878e-07
3.99631e-07
3.98503e-07
3.98898e-07
3.98286e-07
3.99671e-07
3.98207e-07
3.99792e-07
3.97253e-07
4.00809e-07
3.96797e-07
4.01384e-07
3.951e-07
4.03304e-07
3.20099e-07
4.44713e-07
3.99866e-07
3.97945e-07
3.98664e-07
3.9878e-07
3.98792e-07
3.98662e-07
3.9854e-07
3.98631e-07
3.99249e-07
3.9825e-07
3.99634e-07
3.98093e-07
4.01269e-07
3.98723e-07
3.9981e-07
3.98338e-07
4.0017e-07
3.99148e-07
3.9915e-07
3.98706e-07
4.00142e-07
3.98594e-07
3.99828e-07
3.99008e-07
4.00376e-07
3.98742e-07
3.99901e-07
3.98295e-07
3.99387e-07
3.98618e-07
4.00012e-07
3.98701e-07
3.99753e-07
3.98926e-07
3.99545e-07
3.98657e-07
3.99203e-07
3.98106e-07
3.99536e-07
3.98299e-07
3.99608e-07
3.98682e-07
4.00235e-07
3.97808e-07
4.00469e-07
3.97805e-07
4.00465e-07
3.95289e-07
3.99454e-07
3.14027e-07
4.44988e-07
3.97349e-07
3.9922e-07
3.99078e-07
3.9871e-07
3.9863e-07
3.98759e-07
3.98708e-07
3.98622e-07
3.98563e-07
3.99527e-07
3.98268e-07
3.99962e-07
3.9776e-07
3.99512e-07
3.98547e-07
4.00096e-07
3.97302e-07
3.98901e-07
3.98503e-07
4.00128e-07
3.98434e-07
3.99495e-07
3.99243e-07
3.98851e-07
3.98192e-07
3.99134e-07
3.98932e-07
3.99066e-07
3.98388e-07
3.99115e-07
3.98718e-07
3.98695e-07
3.98588e-07
3.99087e-07
3.98106e-07
3.99186e-07
3.98498e-07
3.99733e-07
3.98539e-07
3.99093e-07
3.98452e-07
3.99577e-07
3.98053e-07
4.00139e-07
3.98222e-07
4.00522e-07
3.9849e-07
4.01249e-07
3.96208e-07
4.05383e-07
3.11928e-07
4.44293e-07
3.99083e-07
3.9751e-07
3.98193e-07
3.98245e-07
3.98613e-07
3.98623e-07
3.98644e-07
3.98588e-07
3.98901e-07
3.98379e-07
3.99464e-07
3.97981e-07
4.00271e-07
3.98108e-07
3.99893e-07
3.98647e-07
4.00353e-07
3.99456e-07
4.00285e-07
3.98202e-07
4.0013e-07
3.98513e-07
3.9972e-07
3.98485e-07
4.00118e-07
3.98742e-07
3.99912e-07
3.97585e-07
3.99939e-07
3.98921e-07
3.99947e-07
3.98109e-07
3.99951e-07
3.98723e-07
3.99216e-07
3.99518e-07
3.99397e-07
3.98679e-07
3.9929e-07
3.98279e-07
3.9923e-07
3.98498e-07
3.99374e-07
3.98122e-07
3.99631e-07
3.98406e-07
3.9943e-07
3.97789e-07
4.01536e-07
3.94481e-07
4.10394e-07
3.15034e-07
4.45498e-07
3.97448e-07
3.9936e-07
3.97442e-07
3.98606e-07
3.98643e-07
3.9862e-07
3.98582e-07
3.98853e-07
3.98526e-07
3.99266e-07
3.98371e-07
3.9992e-07
3.97754e-07
4.00329e-07
3.98735e-07
3.99378e-07
3.98576e-07
3.99806e-07
3.97534e-07
3.99404e-07
3.9803e-07
3.99302e-07
3.98533e-07
3.99707e-07
3.9827e-07
3.9879e-07
3.98907e-07
3.99354e-07
3.98984e-07
3.9923e-07
3.97993e-07
3.98932e-07
3.98437e-07
3.99332e-07
3.97927e-07
3.99251e-07
3.97923e-07
3.98956e-07
3.98278e-07
3.99378e-07
3.98891e-07
3.9883e-07
3.98154e-07
3.99596e-07
3.98542e-07
3.99654e-07
3.98149e-07
4.00306e-07
3.96851e-07
4.01509e-07
3.91614e-07
4.0797e-07
3.14133e-07
4.45288e-07
3.99441e-07
3.98325e-07
4.00199e-07
3.98712e-07
3.98659e-07
3.98695e-07
3.98632e-07
3.98629e-07
3.99133e-07
3.98478e-07
3.99736e-07
3.9842e-07
4.00165e-07
3.98129e-07
4.00739e-07
3.98892e-07
3.996e-07
3.98135e-07
4.00961e-07
3.99113e-07
3.99579e-07
3.99519e-07
3.99277e-07
3.9904e-07
3.99784e-07
3.98729e-07
4.00116e-07
3.98279e-07
3.99941e-07
3.98568e-07
3.99581e-07
3.98731e-07
3.9943e-07
3.98432e-07
3.99825e-07
3.98968e-07
3.99223e-07
3.98883e-07
3.9966e-07
3.98504e-07
3.9917e-07
3.98486e-07
3.99301e-07
3.98452e-07
3.99084e-07
3.98194e-07
3.99857e-07
3.98114e-07
4.00495e-07
3.97185e-07
4.0184e-07
3.9412e-07
4.07651e-07
3.13837e-07
4.45852e-07
3.97231e-07
3.98702e-07
3.97907e-07
3.98638e-07
3.98552e-07
3.986e-07
3.9858e-07
3.98964e-07
3.98396e-07
3.9983e-07
3.98019e-07
3.99746e-07
3.98654e-07
3.99601e-07
3.97489e-07
3.98836e-07
3.98686e-07
4.00232e-07
3.98434e-07
3.9891e-07
3.98981e-07
3.98916e-07
3.98251e-07
3.99211e-07
3.98576e-07
3.98581e-07
3.989e-07
3.99122e-07
3.98437e-07
3.9832e-07
3.98836e-07
3.98725e-07
3.9843e-07
3.99234e-07
3.98144e-07
3.99084e-07
3.98189e-07
3.99546e-07
3.98373e-07
3.99332e-07
3.9854e-07
3.99553e-07
3.98599e-07
3.99191e-07
3.98683e-07
3.99576e-07
3.98073e-07
3.99936e-07
3.98507e-07
4.00099e-07
3.97416e-07
4.01383e-07
3.9355e-07
4.08552e-07
3.16135e-07
4.44281e-07
3.9912e-07
3.96585e-07
3.98842e-07
3.97898e-07
3.98586e-07
3.98574e-07
3.98726e-07
3.98648e-07
3.99221e-07
3.98146e-07
4.00562e-07
3.98061e-07
3.99864e-07
3.98312e-07
4.01252e-07
3.98809e-07
3.99522e-07
3.9861e-07
3.99067e-07
3.99241e-07
3.98985e-07
3.9914e-07
4.01051e-07
3.98547e-07
4.00275e-07
3.98936e-07
3.99917e-07
3.98807e-07
4.00004e-07
3.98898e-07
3.99973e-07
3.98471e-07
4.00271e-07
3.98921e-07
3.99767e-07
3.98644e-07
3.99345e-07
3.98248e-07
3.99068e-07
3.98575e-07
3.9896e-07
3.98572e-07
3.99066e-07
3.98309e-07
3.99211e-07
3.98465e-07
3.99212e-07
3.98567e-07
3.99312e-07
3.98238e-07
4.00807e-07
3.9815e-07
4.0058e-07
3.93276e-07
4.05926e-07
3.18887e-07
4.46135e-07
3.97648e-07
4.01359e-07
3.96532e-07
3.9891e-07
3.9859e-07
3.98635e-07
3.98675e-07
3.98693e-07
3.98551e-07
3.99959e-07
3.97709e-07
4.0088e-07
3.976e-07
3.994e-07
3.98457e-07
3.98704e-07
3.98234e-07
4.00964e-07
3.98819e-07
3.99192e-07
3.98798e-07
3.99255e-07
3.98305e-07
3.98875e-07
3.99318e-07
3.98346e-07
3.99331e-07
4.00043e-07
3.98899e-07
3.98895e-07
3.98347e-07
3.98845e-07
3.98693e-07
3.99292e-07
3.98505e-07
3.99726e-07
3.98012e-07
3.99203e-07
3.98429e-07
3.99008e-07
3.97915e-07
3.99787e-07
3.98442e-07
3.99424e-07
3.98217e-07
3.99184e-07
3.98262e-07
3.99518e-07
3.98727e-07
3.99522e-07
3.98595e-07
3.99919e-07
3.97885e-07
4.01191e-07
3.94323e-07
4.02994e-07
3.21096e-07
4.44795e-07
3.98833e-07
3.9749e-07
4.00488e-07
3.98893e-07
3.9869e-07
3.98671e-07
3.98622e-07
3.9852e-07
3.98776e-07
3.98212e-07
4.00516e-07
3.97612e-07
4.01088e-07
3.98783e-07
3.99686e-07
3.98642e-07
4.00144e-07
3.98561e-07
3.99995e-07
3.98712e-07
4.00781e-07
3.9851e-07
4.01132e-07
3.99231e-07
3.98298e-07
3.98382e-07
3.99347e-07
3.978e-07
3.99782e-07
3.98795e-07
3.9954e-07
3.99274e-07
3.99549e-07
3.9841e-07
3.99277e-07
3.98639e-07
3.98991e-07
3.98536e-07
3.9985e-07
3.98815e-07
3.99951e-07
3.9857e-07
3.99088e-07
3.98362e-07
3.99359e-07
3.98321e-07
3.99205e-07
3.98513e-07
3.99332e-07
3.98058e-07
3.9907e-07
3.98474e-07
3.99602e-07
3.98279e-07
4.01026e-07
3.95315e-07
3.99492e-07
3.17398e-07
4.44296e-07
3.97432e-07
3.9858e-07
3.99064e-07
3.98544e-07
3.98636e-07
3.98632e-07
3.98596e-07
3.98585e-07
3.9849e-07
3.9965e-07
3.97652e-07
4.00238e-07
3.98402e-07
4.00158e-07
3.98554e-07
3.99749e-07
3.98683e-07
4.00068e-07
3.98618e-07
3.98249e-07
3.97951e-07
3.9934e-07
3.98704e-07
3.97992e-07
3.99085e-07
4.00327e-07
3.98708e-07
3.98587e-07
4.00051e-07
3.98661e-07
3.99149e-07
3.99114e-07
3.98084e-07
3.99456e-07
3.98393e-07
3.99293e-07
3.98058e-07
4.00164e-07
3.98427e-07
3.98939e-07
3.98154e-07
3.98756e-07
3.97958e-07
3.99647e-07
3.9855e-07
3.99009e-07
3.98382e-07
3.99222e-07
3.98577e-07
3.99703e-07
3.97908e-07
3.99655e-07
3.98778e-07
3.99264e-07
3.98151e-07
4.01091e-07
3.95895e-07
4.04912e-07
3.15025e-07
4.44069e-07
3.99459e-07
3.98312e-07
3.97929e-07
3.98542e-07
3.98622e-07
3.98496e-07
3.98566e-07
3.98558e-07
3.99051e-07
3.98181e-07
4.00722e-07
3.97727e-07
3.99936e-07
3.98209e-07
4.00081e-07
3.97816e-07
4.00154e-07
3.98583e-07
3.99556e-07
3.98305e-07
4.01931e-07
3.98637e-07
4.00316e-07
3.9957e-07
3.99888e-07
3.99222e-07
3.99229e-07
3.98627e-07
3.99958e-07
3.98015e-07
3.98918e-07
3.98033e-07
3.99589e-07
3.99114e-07
3.99813e-07
3.98734e-07
3.99237e-07
3.9862e-07
3.9973e-07
3.98327e-07
3.98787e-07
3.98984e-07
4.00125e-07
3.98226e-07
3.99374e-07
3.98566e-07
3.99207e-07
3.98718e-07
3.99276e-07
3.98501e-07
3.99716e-07
3.98547e-07
3.99456e-07
3.98368e-07
3.9951e-07
3.97532e-07
4.01442e-07
3.95056e-07
4.08055e-07
3.1851e-07
4.45184e-07
3.97831e-07
3.98532e-07
3.9843e-07
3.99025e-07
3.98632e-07
3.98571e-07
3.98667e-07
3.98577e-07
3.98537e-07
3.99759e-07
3.97449e-07
4.00611e-07
3.97336e-07
4.00292e-07
3.98307e-07
4.01335e-07
3.99102e-07
3.98688e-07
3.99055e-07
3.99646e-07
3.9875e-07
3.97421e-07
3.98487e-07
3.98853e-07
3.98989e-07
3.99145e-07
3.98646e-07
3.98544e-07
3.98791e-07
3.99778e-07
3.99766e-07
3.99668e-07
3.99321e-07
3.99402e-07
3.98485e-07
3.98906e-07
3.98377e-07
3.9915e-07
3.98494e-07
3.98812e-07
3.98835e-07
4.00044e-07
3.97804e-07
3.99373e-07
3.98275e-07
3.98815e-07
3.98409e-07
3.99236e-07
3.98281e-07
3.98772e-07
3.98375e-07
3.99421e-07
3.97647e-07
3.99495e-07
3.9863e-07
4.00448e-07
3.97792e-07
4.00857e-07
3.9389e-07
4.06346e-07
3.18924e-07
4.44408e-07
3.98926e-07
3.98753e-07
3.99348e-07
3.98567e-07
3.98578e-07
3.98538e-07
3.98651e-07
3.98672e-07
3.98808e-07
3.98571e-07
4.00724e-07
3.97786e-07
4.01352e-07
3.98704e-07
4.00864e-07
3.98296e-07
3.99355e-07
3.99081e-07
4.00032e-07
3.98504e-07
3.99208e-07
3.9955e-07
4.00817e-07
3.99244e-07
3.99733e-07
3.98734e-07
3.99178e-07
3.99124e-07
4.00127e-07
3.98951e-07
3.98118e-07
3.98176e-07
3.99905e-07
3.98807e-07
3.99563e-07
3.99113e-07
3.98928e-07
3.99288e-07
3.9937e-07
3.98794e-07
3.99785e-07
3.9777e-07
3.98478e-07
3.99114e-07
3.99637e-07
3.98203e-07
3.99228e-07
3.98805e-07
3.99308e-07
3.98571e-07
3.99335e-07
3.98681e-07
3.99393e-07
3.98277e-07
3.99435e-07
3.98064e-07
3.99953e-07
3.97872e-07
4.00728e-07
3.94272e-07
4.03564e-07
3.24061e-07
4.44159e-07
3.97907e-07
3.98554e-07
3.97437e-07
3.98671e-07
3.98463e-07
3.98722e-07
3.98618e-07
3.98651e-07
3.98669e-07
3.99398e-07
3.98131e-07
4.00237e-07
3.98305e-07
3.9932e-07
3.98966e-07
3.99809e-07
3.98277e-07
3.99496e-07
3.99535e-07
3.98877e-07
3.99309e-07
3.9924e-07
3.9773e-07
3.98929e-07
3.9819e-07
3.9916e-07
3.9977e-07
3.99526e-07
3.99025e-07
3.98613e-07
3.99048e-07
3.99005e-07
3.98717e-07
3.97804e-07
3.988e-07
3.98734e-07
3.99137e-07
3.98151e-07
3.98711e-07
3.99432e-07
3.98476e-07
3.98484e-07
3.99442e-07
3.99792e-07
3.97754e-07
3.99377e-07
3.98362e-07
3.98784e-07
3.98306e-07
3.99128e-07
3.9832e-07
3.99047e-07
3.9829e-07
3.99734e-07
3.98604e-07
3.99445e-07
3.98462e-07
3.99441e-07
3.98033e-07
4.0151e-07
3.95145e-07
4.00437e-07
3.19088e-07
4.4324e-07
3.98686e-07
3.9798e-07
3.99459e-07
3.98621e-07
3.98712e-07
3.98394e-07
3.98605e-07
3.98716e-07
3.98829e-07
3.98577e-07
3.99989e-07
3.98185e-07
4.004e-07
3.98217e-07
3.99631e-07
3.97457e-07
4.00411e-07
3.98405e-07
4.00309e-07
3.98208e-07
4.00225e-07
3.99017e-07
4.00553e-07
3.99432e-07
3.9984e-07
3.99712e-07
3.99914e-07
3.99124e-07
3.99418e-07
3.99172e-07
3.99499e-07
3.98493e-07
3.99249e-07
3.98918e-07
4.00639e-07
3.99052e-07
3.99675e-07
3.98798e-07
3.99894e-07
3.98615e-07
3.99469e-07
3.98537e-07
3.99931e-07
3.97705e-07
3.99082e-07
3.98756e-07
3.99631e-07
3.98131e-07
3.99355e-07
3.98551e-07
3.9929e-07
3.98254e-07
3.99371e-07
3.98541e-07
3.99309e-07
3.98268e-07
3.9932e-07
3.98037e-07
4.00742e-07
3.97205e-07
4.01075e-07
3.96392e-07
4.05222e-07
3.16262e-07
4.44482e-07
3.97707e-07
3.99022e-07
3.97895e-07
3.98752e-07
3.9776e-07
3.98609e-07
3.98789e-07
3.98626e-07
3.98592e-07
3.99639e-07
3.98102e-07
4.00147e-07
3.97714e-07
4.00749e-07
3.98071e-07
4.00087e-07
3.9868e-07
3.9914e-07
3.98784e-07
3.99512e-07
3.98783e-07
3.99378e-07
3.98409e-07
3.98495e-07
3.99259e-07
3.98837e-07
3.98884e-07
3.98404e-07
3.98697e-07
3.99133e-07
3.98416e-07
3.99062e-07
3.99153e-07
3.98772e-07
3.98981e-07
3.98039e-07
3.98897e-07
3.98876e-07
3.98882e-07
3.98905e-07
3.98431e-07
3.99319e-07
3.98788e-07
3.99157e-07
3.98876e-07
3.99363e-07
3.98356e-07
3.98937e-07
3.98383e-07
3.99074e-07
3.98415e-07
3.99387e-07
3.98135e-07
3.99212e-07
3.9829e-07
3.99844e-07
3.98355e-07
4.00293e-07
3.97983e-07
3.9981e-07
3.98167e-07
4.01576e-07
3.9349e-07
4.11584e-07
3.18274e-07
4.42624e-07
3.98778e-07
3.97727e-07
3.98828e-07
3.97624e-07
3.99301e-07
3.98831e-07
3.98656e-07
3.98631e-07
3.98687e-07
3.98352e-07
4.00217e-07
3.98059e-07
4.00848e-07
3.98395e-07
4.00399e-07
3.99076e-07
4.00474e-07
3.99161e-07
4.00699e-07
3.97685e-07
4.00569e-07
3.99527e-07
3.99321e-07
3.99278e-07
4.00292e-07
3.98677e-07
4.00147e-07
3.98961e-07
3.99855e-07
3.98874e-07
3.99743e-07
3.98978e-07
3.9977e-07
3.98626e-07
3.99852e-07
3.98681e-07
4.00206e-07
3.98794e-07
3.99256e-07
3.98805e-07
3.98285e-07
3.98991e-07
3.99415e-07
3.97974e-07
3.99617e-07
3.98228e-07
3.98922e-07
3.98639e-07
3.99509e-07
3.98494e-07
3.99254e-07
3.98518e-07
3.99307e-07
3.98594e-07
3.99237e-07
3.98376e-07
3.99496e-07
3.9791e-07
3.99578e-07
3.9845e-07
3.99819e-07
3.97982e-07
4.01568e-07
3.91801e-07
4.09134e-07
3.18903e-07
4.44166e-07
3.97612e-07
3.99003e-07
3.984e-07
3.99721e-07
3.98712e-07
3.98512e-07
3.98692e-07
3.98577e-07
3.98598e-07
3.99486e-07
3.97826e-07
3.99899e-07
3.9837e-07
4.00698e-07
3.98736e-07
3.99665e-07
3.99306e-07
3.99284e-07
3.99145e-07
4.00534e-07
3.99367e-07
3.98654e-07
3.99122e-07
3.99655e-07
3.98325e-07
3.99543e-07
3.9885e-07
3.99029e-07
3.99154e-07
3.98889e-07
3.99595e-07
3.98678e-07
3.99221e-07
3.99035e-07
3.98997e-07
3.97799e-07
3.98679e-07
3.99003e-07
3.98942e-07
3.99798e-07
3.9923e-07
3.99423e-07
3.98753e-07
3.99026e-07
3.98741e-07
3.9927e-07
3.99067e-07
3.99579e-07
3.98242e-07
3.99118e-07
3.98182e-07
3.99092e-07
3.97962e-07
3.99087e-07
3.98185e-07
3.98886e-07
3.98471e-07
3.99503e-07
3.98539e-07
3.99711e-07
3.98485e-07
3.99693e-07
3.97335e-07
4.01219e-07
3.94126e-07
4.10148e-07
3.20261e-07
4.43612e-07
3.9906e-07
3.97833e-07
3.98622e-07
3.98154e-07
3.98493e-07
3.98595e-07
3.98611e-07
3.98491e-07
3.98623e-07
3.98669e-07
4.0018e-07
3.98291e-07
4.00157e-07
3.98814e-07
3.99354e-07
3.9922e-07
3.99034e-07
3.98214e-07
3.99871e-07
3.98749e-07
3.98199e-07
3.98707e-07
3.99244e-07
3.9915e-07
3.99846e-07
3.98795e-07
3.99095e-07
3.99225e-07
3.99229e-07
3.98758e-07
3.9981e-07
3.98502e-07
4.00121e-07
3.98127e-07
3.99542e-07
3.98894e-07
4.004e-07
3.99311e-07
3.99505e-07
3.98775e-07
3.98626e-07
3.9859e-07
3.99356e-07
3.98381e-07
3.99775e-07
3.98066e-07
3.99583e-07
3.97993e-07
3.99437e-07
3.98558e-07
3.9916e-07
3.98469e-07
3.99784e-07
3.98531e-07
3.99622e-07
3.98417e-07
3.99101e-07
3.98408e-07
3.9895e-07
3.98442e-07
3.99287e-07
3.98343e-07
4.00211e-07
3.98245e-07
4.00521e-07
3.93499e-07
4.05953e-07
3.23528e-07
4.44033e-07
3.9788e-07
3.997e-07
3.98582e-07
3.98591e-07
3.98657e-07
3.98666e-07
3.98687e-07
3.98507e-07
3.98557e-07
3.99038e-07
3.98377e-07
4.00239e-07
3.97906e-07
4.00889e-07
3.98382e-07
3.99625e-07
3.99154e-07
3.99768e-07
3.99162e-07
3.99141e-07
3.98376e-07
4.00278e-07
3.99881e-07
3.9945e-07
3.98638e-07
3.99228e-07
3.99778e-07
3.99323e-07
3.98954e-07
3.99415e-07
3.9895e-07
3.98862e-07