/*--------------------------------*- C++ -*----------------------------------*\
| =========                 |                                                 |
| \\      /  F ield         | OpenFOAM: The Open Source CFD Toolbox           |
|  \\    /   O peration     | Version:  2206                                  |
|   \\  /    A nd           | Website:  www.openfoam.com                      |
|    \\/     M anipulation  |                                                 |
\*---------------------------------------------------------------------------*/
FoamFile
{
    version     2.0;
    format      ascii;
    arch        "LSB;label=32;scalar=64";
    class       volScalarField;
    location    "200";
    object      nuTildaMean;
}
// * * * * * * * * * * * * * * * * * * * * * * * * * * * * * * * * * * * * * //

dimensions      [0 2 -1 0 0 0 0];

internalField   nonuniform List<scalar> 
93840
(
4.56674e-07
2.45833e-07
4.56907e-07
4.04348e-07
2.38851e-07
4.46535e-07
3.61268e-07
4.20196e-07
2.85448e-07
4.3488e-07
4.18023e-07
3.81549e-07
4.15944e-07
3.2414e-07
4.35712e-07
3.86919e-07
4.04804e-07
3.86259e-07
4.10876e-07
3.24767e-07
4.15937e-07
4.0079e-07
3.95016e-07
4.05186e-07
3.86239e-07
4.153e-07
3.56724e-07
4.38012e-07
3.96718e-07
4.00755e-07
3.92893e-07
4.04728e-07
3.92681e-07
4.1162e-07
3.40538e-07
4.15363e-07
3.9992e-07
3.90409e-07
4.00873e-07
3.96887e-07
4.01324e-07
3.93972e-07
4.07643e-07
3.46897e-07
4.36721e-07
3.97073e-07
4.06916e-07
3.96962e-07
3.99157e-07
3.97113e-07
4.00809e-07
3.91175e-07
4.07267e-07
3.41308e-07
4.21432e-07
3.99584e-07
3.9334e-07
4.01593e-07
3.95623e-07
4.00497e-07
3.98113e-07
3.9935e-07
3.95079e-07
4.05875e-07
3.54323e-07
4.38226e-07
3.9625e-07
4.00994e-07
3.94777e-07
4.02356e-07
3.9825e-07
3.99078e-07
3.97718e-07
4.01741e-07
3.91743e-07
4.00343e-07
3.49126e-07
4.21125e-07
3.9951e-07
3.94438e-07
4.00154e-07
3.9724e-07
3.99448e-07
3.98985e-07
4.00734e-07
3.95024e-07
4.02108e-07
3.95999e-07
4.01181e-07
3.5151e-07
4.3138e-07
3.98004e-07
4.00164e-07
3.95577e-07
3.98318e-07
3.97558e-07
3.9873e-07
3.98357e-07
4.02027e-07
3.98262e-07
4.01747e-07
3.9602e-07
4.05775e-07
3.4887e-07
4.2496e-07
3.9819e-07
3.97272e-07
4.0005e-07
3.98718e-07
3.98762e-07
3.98515e-07
3.98883e-07
3.97468e-07
3.98725e-07
3.97139e-07
3.99541e-07
3.93885e-07
4.06237e-07
3.52941e-07
4.31588e-07
3.98228e-07
3.99155e-07
3.97381e-07
3.98373e-07
3.98238e-07
3.98649e-07
3.98687e-07
3.99688e-07
3.97742e-07
4.00965e-07
3.97689e-07
4.01822e-07
3.93156e-07
4.02596e-07
3.4939e-07
4.25248e-07
3.9837e-07
3.96922e-07
3.99834e-07
3.98437e-07
3.98866e-07
3.98418e-07
3.98495e-07
3.98382e-07
4.00145e-07
3.97821e-07
3.99553e-07
3.97561e-07
3.99716e-07
3.95546e-07
4.04562e-07
3.5174e-07
4.2957e-07
3.98152e-07
3.99238e-07
3.96337e-07
3.98481e-07
3.97245e-07
3.98515e-07
3.98426e-07
3.9884e-07
3.97437e-07
3.99868e-07
3.97779e-07
3.99982e-07
3.97234e-07
4.02259e-07
3.94604e-07
4.05824e-07
3.51073e-07
4.25032e-07
3.98188e-07
3.97916e-07
3.99529e-07
3.97528e-07
3.99524e-07
3.98414e-07
3.98963e-07
3.97784e-07
3.99682e-07
3.98395e-07
3.99487e-07
3.98045e-07
3.99961e-07
3.9752e-07
3.99196e-07
3.93488e-07
4.0561e-07
3.54002e-07
4.28607e-07
3.98266e-07
3.98518e-07
3.97443e-07
3.99619e-07
3.97895e-07
3.9829e-07
3.98397e-07
3.99723e-07
3.98103e-07
3.99087e-07
3.9765e-07
3.99749e-07
3.9783e-07
4.00643e-07
3.97941e-07
4.02508e-07
3.94669e-07
4.0331e-07
3.52689e-07
4.24383e-07
3.98345e-07
3.97955e-07
3.98776e-07
3.97975e-07
3.98902e-07
3.98498e-07
3.98736e-07
3.97838e-07
3.99505e-07
3.98504e-07
3.99843e-07
3.97549e-07
4.00171e-07
3.98565e-07
3.99539e-07
3.97152e-07
3.9942e-07
3.95877e-07
4.04707e-07
3.53958e-07
4.28272e-07
3.98141e-07
3.98557e-07
3.97816e-07
3.98501e-07
3.97655e-07
3.98347e-07
3.98529e-07
3.99053e-07
3.97779e-07
3.98768e-07
3.97742e-07
4.0037e-07
3.9793e-07
3.99576e-07
3.96111e-07
4.00122e-07
3.97244e-07
4.01889e-07
3.93378e-07
4.04833e-07
3.51896e-07
4.25385e-07
3.98499e-07
3.9789e-07
3.98438e-07
3.98268e-07
3.98668e-07
3.98461e-07
3.98712e-07
3.97527e-07
3.99786e-07
3.97678e-07
3.99886e-07
3.97096e-07
3.99912e-07
3.98379e-07
4.00629e-07
3.9867e-07
4.00642e-07
3.96898e-07
3.9987e-07
3.95472e-07
4.05137e-07
3.55079e-07
4.29521e-07
3.98005e-07
3.98693e-07
3.98317e-07
3.98979e-07
3.98113e-07
3.9833e-07
3.98478e-07
4.00103e-07
3.96138e-07
3.99339e-07
3.97747e-07
3.99952e-07
3.97297e-07
3.98841e-07
3.96913e-07
4.0038e-07
3.9618e-07
4.00766e-07
3.97699e-07
4.0236e-07
3.92999e-07
4.04163e-07
3.53046e-07
4.282e-07
3.98268e-07
3.97801e-07
3.98438e-07
3.97468e-07
3.9861e-07
3.98458e-07
3.98569e-07
3.97983e-07
4.01547e-07
3.98501e-07
4.00101e-07
3.97453e-07
4.00433e-07
3.97882e-07
4.00594e-07
3.98418e-07
4.00414e-07
3.98603e-07
4.00078e-07
3.96061e-07
3.99933e-07
3.95557e-07
4.02911e-07
3.55167e-07
4.34138e-07
3.98032e-07
3.98669e-07
3.98214e-07
3.98808e-07
3.97883e-07
3.98476e-07
3.98325e-07
3.98603e-07
3.96902e-07
3.98645e-07
3.9718e-07
3.99179e-07
3.97087e-07
3.99975e-07
3.97303e-07
3.98873e-07
3.9657e-07
4.00172e-07
3.96657e-07
4.0068e-07
3.97819e-07
4.02703e-07
3.93806e-07
4.02179e-07
3.49846e-07
4.20064e-07
3.98512e-07
3.98267e-07
3.98522e-07
3.97587e-07
3.98564e-07
3.98301e-07
3.98402e-07
3.98379e-07
3.98993e-07
3.9845e-07
3.99647e-07
3.9825e-07
4.0044e-07
3.9707e-07
3.99676e-07
3.9894e-07
3.99809e-07
3.98207e-07
4.00106e-07
3.98951e-07
3.99551e-07
3.96845e-07
4.01277e-07
3.96415e-07
4.03168e-07
3.54636e-07
4.28562e-07
3.98098e-07
3.98465e-07
3.98307e-07
3.99074e-07
3.98439e-07
3.98765e-07
3.98334e-07
3.99095e-07
3.97838e-07
3.99645e-07
3.97299e-07
3.99421e-07
3.97234e-07
3.9984e-07
3.97361e-07
3.98801e-07
3.97556e-07
3.99637e-07
3.9824e-07
3.99599e-07
3.97115e-07
3.99975e-07
3.97866e-07
4.01431e-07
3.94567e-07
4.03641e-07
3.57135e-07
4.24617e-07
3.98313e-07
3.98285e-07
3.98639e-07
3.97972e-07
3.98493e-07
3.98024e-07
3.98588e-07
3.97524e-07
3.99714e-07
3.97242e-07
3.99671e-07
3.97739e-07
3.99862e-07
3.98007e-07
4.00855e-07
3.97962e-07
4.00057e-07
3.98497e-07
3.99718e-07
3.97911e-07
4.00584e-07
3.98376e-07
4.00023e-07
3.97097e-07
4.0021e-07
3.96221e-07
4.0299e-07
3.55531e-07
4.28155e-07
3.98319e-07
3.98423e-07
3.97841e-07
3.98728e-07
3.98397e-07
3.9888e-07
3.9857e-07
4.0016e-07
3.95779e-07
4.00006e-07
3.97205e-07
3.9968e-07
3.97482e-07
3.99181e-07
3.97543e-07
3.99303e-07
3.9763e-07
3.99054e-07
3.97411e-07
3.99337e-07
3.97079e-07
3.99757e-07
3.97656e-07
4.00051e-07
3.98447e-07
4.00917e-07
3.94176e-07
4.0408e-07
3.55834e-07
4.25334e-07
3.98741e-07
3.98156e-07
3.98983e-07
3.98507e-07
3.98629e-07
3.97994e-07
3.98419e-07
3.98079e-07
4.01955e-07
3.98157e-07
4.0005e-07
3.97449e-07
3.99742e-07
3.98096e-07
4.00332e-07
3.97801e-07
4.00311e-07
3.98667e-07
4.00003e-07
3.99467e-07
3.99997e-07
3.98707e-07
3.99789e-07
3.98236e-07
3.99569e-07
3.97343e-07
4.00317e-07
3.95828e-07
4.02106e-07
3.57663e-07
4.2749e-07
3.97814e-07
3.98643e-07
3.97573e-07
3.98523e-07
3.9829e-07
3.99522e-07
3.98532e-07
3.98802e-07
3.96725e-07
3.9854e-07
3.97332e-07
4.00354e-07
3.97451e-07
3.99104e-07
3.97675e-07
3.99434e-07
3.97658e-07
3.99037e-07
3.96856e-07
3.99077e-07
3.97222e-07
3.99088e-07
3.97353e-07
3.99725e-07
3.98159e-07
4.00049e-07
3.98062e-07
4.01362e-07
3.95628e-07
4.01891e-07
3.5628e-07
4.255e-07
3.98501e-07
3.97891e-07
3.98834e-07
3.98442e-07
3.98357e-07
3.96583e-07
3.98341e-07
3.98496e-07
3.98986e-07
3.98368e-07
3.99883e-07
3.97364e-07
3.99498e-07
3.97963e-07
3.99583e-07
3.98529e-07
3.9941e-07
3.9815e-07
4.00409e-07
3.98966e-07
3.99417e-07
3.98518e-07
3.99222e-07
3.99075e-07
3.99259e-07
3.97677e-07
3.99553e-07
3.96985e-07
4.0041e-07
3.96399e-07
4.02258e-07
3.57319e-07
4.26999e-07
3.98095e-07
3.98546e-07
3.98181e-07
3.98535e-07
3.9834e-07
3.99207e-07
3.98678e-07
3.98854e-07
3.98021e-07
3.99548e-07
3.9777e-07
4.00298e-07
3.97619e-07
3.99095e-07
3.97815e-07
3.9889e-07
3.97767e-07
3.99601e-07
3.98004e-07
3.99171e-07
3.96735e-07
3.99356e-07
3.97955e-07
3.99451e-07
3.97265e-07
3.99986e-07
3.9812e-07
4.00144e-07
3.97839e-07
4.01307e-07
3.94888e-07
4.02376e-07
3.58217e-07
4.26121e-07
3.98325e-07
3.97711e-07
3.98373e-07
3.98332e-07
3.9832e-07
3.98416e-07
3.98313e-07
3.98448e-07
3.99278e-07
3.97841e-07
3.99184e-07
3.97253e-07
3.99929e-07
3.98068e-07
4.00137e-07
3.9819e-07
3.99206e-07
3.98221e-07
3.99122e-07
3.98313e-07
4.00033e-07
3.98267e-07
4.00145e-07
3.98593e-07
3.99432e-07
3.99088e-07
3.99438e-07
3.97929e-07
4.00191e-07
3.97278e-07
4.01064e-07
3.96916e-07
4.00953e-07
3.57147e-07
4.26903e-07
3.97958e-07
3.99006e-07
3.98381e-07
3.98326e-07
3.98321e-07
3.98298e-07
3.98544e-07
3.98859e-07
3.98198e-07
3.99525e-07
3.97866e-07
3.99823e-07
3.97518e-07
3.99594e-07
3.97899e-07
3.98799e-07
3.98285e-07
3.99351e-07
3.98065e-07
3.99575e-07
3.97664e-07
3.99485e-07
3.96613e-07
3.98762e-07
3.97766e-07
3.98887e-07
3.97484e-07
3.99709e-07
3.97695e-07
3.99656e-07
3.97593e-07
4.01252e-07
3.94679e-07
4.02059e-07
3.56022e-07
4.25626e-07
3.98381e-07
3.9798e-07
3.98538e-07
3.98317e-07
3.98406e-07
3.983e-07
3.9844e-07
3.98276e-07
3.99042e-07
3.98136e-07
3.99408e-07
3.97327e-07
4.00025e-07
3.97848e-07
4.00104e-07
3.97885e-07
3.99274e-07
3.98188e-07
3.99474e-07
3.98395e-07
3.9908e-07
3.98774e-07
4.00725e-07
3.99582e-07
3.99379e-07
3.98836e-07
3.99688e-07
3.98685e-07
3.99577e-07
3.98281e-07
4.00355e-07
3.97889e-07
4.01034e-07
3.96958e-07
4.03625e-07
3.57271e-07
4.28015e-07
3.98267e-07
3.98649e-07
3.98448e-07
3.9861e-07
3.98375e-07
3.98531e-07
3.98581e-07
3.98845e-07
3.98006e-07
3.99214e-07
3.97877e-07
3.9993e-07
3.97811e-07
3.99215e-07
3.97519e-07
3.99663e-07
3.9861e-07
3.99108e-07
3.98178e-07
3.9889e-07
3.97965e-07
3.99118e-07
3.9683e-07
3.99203e-07
3.96968e-07
3.98965e-07
3.97995e-07
3.98559e-07
3.97892e-07
3.99335e-07
3.97421e-07
3.99133e-07
3.97807e-07
4.01373e-07
3.94629e-07
4.02457e-07
3.56508e-07
4.25868e-07
3.98502e-07
3.98041e-07
3.9878e-07
3.97904e-07
3.98546e-07
3.98644e-07
3.9873e-07
3.98684e-07
3.99757e-07
3.97812e-07
3.99557e-07
3.97967e-07
3.99982e-07
3.97797e-07
3.99973e-07
3.9781e-07
3.9929e-07
3.98087e-07
3.99139e-07
3.9884e-07
3.99448e-07
3.98386e-07
3.99476e-07
3.99054e-07
3.99776e-07
3.99425e-07
3.99247e-07
3.98716e-07
3.99681e-07
3.98606e-07
3.99823e-07
3.99115e-07
3.99902e-07
3.97321e-07
4.00792e-07
3.96456e-07
4.02857e-07
3.5923e-07
4.27526e-07
3.98318e-07
3.99065e-07
3.98449e-07
3.99364e-07
3.98713e-07
3.98808e-07
3.98816e-07
3.98766e-07
3.98399e-07
3.99549e-07
3.97917e-07
3.99271e-07
3.97608e-07
3.9994e-07
3.97615e-07
3.99874e-07
3.98214e-07
3.99128e-07
3.98157e-07
3.99101e-07
3.97577e-07
3.99075e-07
3.98096e-07
3.99234e-07
3.97139e-07
3.98782e-07
3.97731e-07
3.98492e-07
3.98261e-07
3.98576e-07
3.98006e-07
3.99343e-07
3.97755e-07
3.99886e-07
3.97506e-07
4.0065e-07
3.95284e-07
4.01932e-07
3.57607e-07
4.24777e-07
3.98422e-07
3.98371e-07
3.99037e-07
3.98227e-07
3.98764e-07
3.98816e-07
3.98694e-07
3.98607e-07
3.98977e-07
3.97988e-07
3.99531e-07
3.9807e-07
3.99847e-07
3.97795e-07
4.00107e-07
3.98063e-07
3.99548e-07
3.98038e-07
3.99891e-07
3.98404e-07
3.99571e-07
3.98691e-07
3.99289e-07
3.9834e-07
3.99428e-07
3.99019e-07
3.99529e-07
3.98671e-07
3.99521e-07
3.98456e-07
3.99385e-07
3.987e-07
3.99082e-07
3.98953e-07
3.99876e-07
3.97727e-07
4.00481e-07
3.96364e-07
4.01983e-07
3.57608e-07
4.26655e-07
3.98231e-07
3.9858e-07
3.98032e-07
3.99062e-07
3.98911e-07
3.98805e-07
3.98502e-07
3.98494e-07
3.98524e-07
3.99418e-07
3.97875e-07
3.99771e-07
3.97655e-07
3.99709e-07
3.9772e-07
3.9927e-07
3.97999e-07
3.99333e-07
3.98335e-07
3.98838e-07
3.97669e-07
3.99094e-07
3.97747e-07
3.98956e-07
3.98314e-07
3.99115e-07
3.97949e-07
3.99498e-07
3.98015e-07
3.98641e-07
3.98529e-07
3.9905e-07
3.98018e-07
3.99282e-07
3.97623e-07
4.00224e-07
3.97098e-07
4.01098e-07
3.95749e-07
4.0479e-07
3.57852e-07
4.2518e-07
3.98548e-07
3.98337e-07
3.98691e-07
3.98137e-07
3.98581e-07
3.98504e-07
3.9841e-07
3.98533e-07
3.98919e-07
3.98002e-07
3.99795e-07
3.97917e-07
4.00263e-07
3.98823e-07
4.01205e-07
3.97973e-07
3.99878e-07
3.98675e-07
3.99145e-07
3.98602e-07
4.00127e-07
3.98195e-07
3.9968e-07
3.98413e-07
3.99601e-07
3.98342e-07
3.99235e-07
3.98444e-07
3.99341e-07
3.98771e-07
3.99196e-07
3.98484e-07
3.99006e-07
3.98979e-07
3.98992e-07
3.98536e-07
4.00006e-07
3.97588e-07
4.01141e-07
3.95249e-07
4.03135e-07
3.59095e-07
4.26012e-07
3.98126e-07
3.98558e-07
3.98449e-07
3.9902e-07
3.98399e-07
3.98355e-07
3.98421e-07
3.98814e-07
3.98443e-07
3.99256e-07
3.97619e-07
3.99351e-07
3.9784e-07
3.99004e-07
3.97917e-07
3.97644e-07
3.98157e-07
3.991e-07
3.97704e-07
3.98926e-07
3.98273e-07
3.99143e-07
3.97914e-07
3.99198e-07
3.98192e-07
3.9882e-07
3.98338e-07
3.98859e-07
3.98179e-07
3.98966e-07
3.9817e-07
3.98999e-07
3.98475e-07
3.9928e-07
3.97879e-07
3.99316e-07
3.97613e-07
4.00101e-07
3.97034e-07
4.00625e-07
3.95748e-07
4.03064e-07
3.59279e-07
4.25303e-07
3.9837e-07
3.97928e-07
3.98541e-07
3.97474e-07
3.98276e-07
3.98359e-07
3.98731e-07
3.97736e-07
3.99492e-07
3.981e-07
3.99771e-07
3.97484e-07
3.99713e-07
3.98476e-07
3.99797e-07
3.9841e-07
4.00483e-07
3.98554e-07
4.00267e-07
3.99273e-07
3.9939e-07
3.98588e-07
4.00017e-07
3.9831e-07
3.99626e-07
3.98448e-07
3.99564e-07
3.98629e-07
3.99338e-07
3.98749e-07
3.99326e-07
3.98375e-07
3.98973e-07
3.98405e-07
3.98833e-07
3.98714e-07
3.99332e-07
3.9828e-07
3.99909e-07
3.97713e-07
4.00605e-07
3.96064e-07
4.0142e-07
3.60634e-07
4.25949e-07
3.9736e-07
3.98676e-07
3.98535e-07
3.99759e-07
3.98505e-07
3.98624e-07
3.9859e-07
3.99891e-07
3.95066e-07
3.99537e-07
3.9798e-07
4.00098e-07
3.97742e-07
3.99085e-07
3.98144e-07
3.9929e-07
3.98815e-07
3.986e-07
3.98911e-07
3.97649e-07
3.98298e-07
3.98618e-07
3.98456e-07
3.99189e-07
3.9813e-07
3.98792e-07
3.98309e-07
3.98613e-07
3.98124e-07
3.99037e-07
3.97919e-07
3.99217e-07
3.9828e-07
3.99069e-07
3.98517e-07
3.99387e-07
3.98139e-07
3.99477e-07
3.97817e-07
3.99873e-07
3.9742e-07
4.00213e-07
3.95936e-07
4.00988e-07
3.58632e-07
4.25532e-07
3.99617e-07
3.97593e-07
3.98078e-07
3.9773e-07
3.98601e-07
3.98587e-07
3.98528e-07
3.98476e-07
4.03232e-07
3.9902e-07
3.99405e-07
3.97636e-07
3.99975e-07
3.97893e-07
3.99813e-07
3.98624e-07
4.00092e-07
3.98225e-07
4.00152e-07
3.97815e-07
4.00166e-07
3.98768e-07
3.99336e-07
3.98118e-07
3.99501e-07
3.98289e-07
3.99888e-07
3.98531e-07
3.99614e-07
3.98601e-07
3.99441e-07
3.98824e-07
3.98939e-07
3.98409e-07
3.99098e-07
3.98464e-07
3.99076e-07
3.9855e-07
3.99223e-07
3.98333e-07
4.00061e-07
3.97481e-07
4.0056e-07
3.96559e-07
4.02566e-07
3.57321e-07
4.2607e-07
3.97683e-07
3.9935e-07
3.98518e-07
3.98464e-07
3.98602e-07
3.98579e-07
3.98548e-07
3.9851e-07
3.96516e-07
3.97964e-07
3.97244e-07
3.99647e-07
3.98421e-07
3.99518e-07
3.98155e-07
3.9908e-07
3.98651e-07
3.98925e-07
3.9896e-07
3.98269e-07
3.99257e-07
3.98146e-07
3.98447e-07
3.99092e-07
3.98424e-07
3.99169e-07
3.98402e-07
3.98513e-07
3.98098e-07
3.99061e-07
3.97748e-07
3.98721e-07
3.98225e-07
3.99223e-07
3.98484e-07
3.98887e-07
3.98479e-07
3.99114e-07
3.98197e-07
3.99365e-07
3.97834e-07
4.0007e-07
3.97234e-07
4.00667e-07
3.96086e-07
4.04961e-07
3.58282e-07
4.25383e-07
3.98437e-07
3.97937e-07
3.98819e-07
3.98456e-07
3.98624e-07
3.98497e-07
3.985e-07
3.98596e-07
3.98535e-07
3.98744e-07
4.00369e-07
3.98446e-07
3.99147e-07
3.98071e-07
3.99713e-07
3.98471e-07
3.99076e-07
3.98745e-07
3.99897e-07
3.98304e-07
3.99794e-07
3.98681e-07
3.9985e-07
3.98669e-07
3.99558e-07
3.98294e-07
3.99456e-07
3.98309e-07
3.99684e-07
3.98579e-07
3.99554e-07
3.98737e-07
3.99355e-07
3.98678e-07
3.9895e-07
3.98131e-07
3.99182e-07
3.9842e-07
3.991e-07
3.9839e-07
3.99357e-07
3.98094e-07
4.00076e-07
3.97553e-07
3.99941e-07
3.95337e-07
4.03506e-07
3.59317e-07
4.25389e-07
3.97578e-07
3.98771e-07
3.97792e-07
3.9846e-07
3.98545e-07
3.98476e-07
3.98555e-07
3.98623e-07
3.983e-07
3.99374e-07
3.97821e-07
3.99438e-07
3.97429e-07
3.99653e-07
3.98023e-07
3.99013e-07
3.97913e-07
3.99283e-07
3.98681e-07
3.99284e-07
3.98866e-07
3.98537e-07
3.9845e-07
3.98607e-07
3.98747e-07
3.98841e-07
3.98185e-07
3.99139e-07
3.98497e-07
3.98577e-07
3.98107e-07
3.9933e-07
3.97852e-07
3.98859e-07
3.98316e-07
3.99408e-07
3.9855e-07
3.98888e-07
3.9855e-07
3.99234e-07
3.98152e-07
3.99253e-07
3.97784e-07
4.00345e-07
3.97301e-07
4.00468e-07
3.95627e-07
4.02636e-07
3.61049e-07
4.25108e-07
3.99602e-07
3.98035e-07
3.98485e-07
3.9865e-07
3.98628e-07
3.98583e-07
3.98463e-07
3.98529e-07
3.9904e-07
3.9821e-07
3.99304e-07
3.98196e-07
4.00561e-07
3.98103e-07
3.99821e-07
3.99012e-07
4.00197e-07
3.98354e-07
3.99236e-07
3.98449e-07
3.99728e-07
3.98417e-07
3.99652e-07
3.98865e-07
3.99547e-07
3.97831e-07
3.99671e-07
3.98571e-07
3.99492e-07
3.98346e-07
3.99529e-07
3.98592e-07
3.99363e-07
3.98921e-07
3.9908e-07
3.98403e-07
3.99016e-07
3.98077e-07
3.99014e-07
3.98339e-07
3.99205e-07
3.98297e-07
3.99308e-07
3.97697e-07
4.00105e-07
3.97129e-07
4.00379e-07
3.96452e-07
4.01034e-07
3.59487e-07
4.25872e-07
3.97342e-07
3.98912e-07
3.99024e-07
3.98559e-07
3.98545e-07
3.98592e-07
3.98608e-07
3.98498e-07
3.98473e-07
3.99409e-07
3.98103e-07
3.99595e-07
3.97741e-07
3.99893e-07
3.98098e-07
3.99251e-07
3.97343e-07
3.99015e-07
3.9847e-07
3.98993e-07
3.98565e-07
3.99199e-07
3.98775e-07
3.98542e-07
3.98575e-07
3.98912e-07
3.98982e-07
3.9896e-07
3.98e-07
3.98908e-07
3.9852e-07
3.9879e-07
3.98043e-07
3.99337e-07
3.97906e-07
3.98923e-07
3.98331e-07
3.9934e-07
3.9848e-07
3.98915e-07
3.98377e-07
3.99429e-07
3.98363e-07
3.99555e-07
3.97703e-07
4.00411e-07
3.97334e-07
4.00406e-07
3.96368e-07
4.02193e-07
3.58735e-07
4.25166e-07
3.98995e-07
3.97593e-07
3.98006e-07
3.98212e-07
3.98544e-07
3.98475e-07
3.98518e-07
3.98478e-07
3.98708e-07
3.9825e-07
3.99036e-07
3.98197e-07
3.99667e-07
3.98079e-07
3.99712e-07
3.98579e-07
4.00214e-07
3.98628e-07
3.99773e-07
3.98494e-07
3.99664e-07
3.98375e-07
3.99698e-07
3.98695e-07
3.99657e-07
3.98483e-07
3.99736e-07
3.98125e-07
3.99605e-07
3.98644e-07
3.99259e-07
3.98548e-07
3.99334e-07
3.98799e-07
3.9916e-07
3.98875e-07
3.99032e-07
3.98416e-07
3.99107e-07
3.98057e-07
3.99069e-07
3.98377e-07
3.9912e-07
3.98177e-07
3.99523e-07
3.97877e-07
4.00134e-07
3.9777e-07
4.00547e-07
3.96427e-07
4.03151e-07
3.59505e-07
4.26077e-07
3.97443e-07
3.99214e-07
3.97463e-07
3.98501e-07
3.98501e-07
3.98461e-07
3.98456e-07
3.98687e-07
3.98444e-07
3.98936e-07
3.98264e-07
3.99491e-07
3.97624e-07
3.99452e-07
3.98112e-07
3.99656e-07
3.98379e-07
3.99233e-07
3.98118e-07
3.98974e-07
3.98264e-07
3.99213e-07
3.98632e-07
3.9903e-07
3.98679e-07
3.98624e-07
3.98528e-07
3.98685e-07
3.98537e-07
3.98915e-07
3.98199e-07
3.99187e-07
3.98277e-07
3.99013e-07
3.98137e-07
3.99242e-07
3.98383e-07
3.99048e-07
3.98394e-07
3.99377e-07
3.98396e-07
3.98921e-07
3.98369e-07
3.99475e-07
3.98242e-07
3.99496e-07
3.98098e-07
3.99705e-07
3.97509e-07
4.00723e-07
3.95404e-07
4.03407e-07
3.59833e-07
4.25596e-07
3.99351e-07
3.98278e-07
4.00018e-07
3.98573e-07
3.98468e-07
3.98521e-07
3.98492e-07
3.98495e-07
3.98857e-07
3.98466e-07
3.99374e-07
3.98153e-07
4.00067e-07
3.98378e-07
4.00188e-07
3.98448e-07
3.99139e-07
3.98506e-07
4.00409e-07
3.98377e-07
3.99832e-07
3.98363e-07
3.9966e-07
3.98244e-07
3.99733e-07
3.98348e-07
3.99492e-07
3.98804e-07
3.99938e-07
3.98276e-07
3.9961e-07
3.98535e-07
3.99083e-07
3.98504e-07
3.99362e-07
3.98632e-07
3.99061e-07
3.98712e-07
3.98877e-07
3.98341e-07
3.99018e-07
3.98312e-07
3.98903e-07
3.98275e-07
3.99086e-07
3.98316e-07
3.99278e-07
3.97862e-07
4.00137e-07
3.9738e-07
4.00887e-07
3.95614e-07
4.0246e-07
3.59532e-07
4.26884e-07
3.97263e-07
3.98579e-07
3.97797e-07
3.98543e-07
3.9842e-07
3.98471e-07
3.98481e-07
3.98806e-07
3.98342e-07
3.99429e-07
3.97971e-07
3.99535e-07
3.98431e-07
3.98832e-07
3.97453e-07
3.99917e-07
3.98556e-07
3.99464e-07
3.98151e-07
3.99227e-07
3.98347e-07
3.98781e-07
3.98856e-07
3.98697e-07
3.99156e-07
3.99129e-07
3.98776e-07
3.98847e-07
3.98212e-07
3.98841e-07
3.98566e-07
3.98948e-07
3.98205e-07
3.99242e-07
3.98257e-07
3.99154e-07
3.98179e-07
3.9889e-07
3.98369e-07
3.99303e-07
3.98389e-07
3.99253e-07
3.98422e-07
3.98943e-07
3.9828e-07
3.99314e-07
3.98253e-07
3.99671e-07
3.98169e-07
3.99795e-07
3.97175e-07
4.01263e-07
3.95778e-07
4.03258e-07
3.58994e-07
4.25655e-07
3.99031e-07
3.96531e-07
3.98592e-07
3.9778e-07
3.98413e-07
3.98455e-07
3.98627e-07
3.98534e-07
3.99011e-07
3.98166e-07
3.99978e-07
3.98208e-07
3.99333e-07
3.9835e-07
4.00658e-07
3.98233e-07
3.99467e-07
3.98916e-07
3.99873e-07
3.98439e-07
4.00366e-07
3.98934e-07
3.99067e-07
3.98268e-07
3.99621e-07
3.97853e-07
3.99327e-07
3.98308e-07
3.9943e-07
3.98852e-07
3.99439e-07
3.98454e-07
3.99188e-07
3.98531e-07
3.98947e-07
3.9828e-07
3.99318e-07
3.98724e-07
3.99417e-07
3.98665e-07
3.98928e-07
3.98366e-07
3.99098e-07
3.9844e-07
3.98976e-07
3.98437e-07
3.99073e-07
3.98116e-07
3.99343e-07
3.97968e-07
4.00034e-07
3.973e-07
4.00967e-07
3.95646e-07
4.02726e-07
3.60246e-07
4.26575e-07
3.97658e-07
4.01205e-07
3.96432e-07
3.9878e-07
3.98464e-07
3.98552e-07
3.98567e-07
3.9859e-07
3.98434e-07
3.9964e-07
3.97708e-07
4.0035e-07
3.97579e-07
3.99773e-07
3.9832e-07
3.99651e-07
3.98002e-07
3.9861e-07
3.98178e-07
3.98709e-07
3.98521e-07
3.98149e-07
3.98666e-07
3.99773e-07
3.98814e-07
3.98945e-07
3.99507e-07
3.9901e-07
3.98914e-07
3.99072e-07
3.98153e-07
3.98893e-07
3.98487e-07
3.99186e-07
3.98359e-07
3.99242e-07
3.98525e-07
3.99253e-07
3.9794e-07
3.98632e-07
3.98389e-07
3.99142e-07
3.98403e-07
3.99027e-07
3.98319e-07
3.98957e-07
3.98328e-07
3.9925e-07
3.98301e-07
3.99578e-07
3.98315e-07
4.0003e-07
3.97505e-07
4.00827e-07
3.9548e-07
4.02496e-07
3.60613e-07
4.26388e-07
3.98752e-07
3.97372e-07
4.00528e-07
3.98753e-07
3.98558e-07
3.98588e-07
3.98547e-07
3.98437e-07
3.9853e-07
3.98241e-07
4.00078e-07
3.97395e-07
4.00634e-07
3.97858e-07
3.99406e-07
3.98181e-07
3.99389e-07
3.98379e-07
4.01204e-07
3.99025e-07
3.99734e-07
3.98711e-07
3.99879e-07
3.98742e-07
3.99279e-07
3.98522e-07
3.99098e-07
3.98003e-07
3.99565e-07
3.98304e-07
3.99332e-07
3.98732e-07
3.99397e-07
3.98619e-07
3.99241e-07
3.98561e-07
3.99373e-07
3.97913e-07
3.98825e-07
3.98834e-07
3.99367e-07
3.98348e-07
3.99198e-07
3.98426e-07
3.99167e-07
3.98378e-07
3.99061e-07
3.98362e-07
3.99079e-07
3.98446e-07
3.99187e-07
3.98053e-07
3.99897e-07
3.97464e-07
4.00844e-07
3.96009e-07
4.00701e-07
3.59999e-07
4.26499e-07
3.97455e-07
3.98488e-07
3.98813e-07
3.98476e-07
3.9852e-07
3.98542e-07
3.98506e-07
3.98486e-07
3.98392e-07
3.99258e-07
3.97647e-07
4.0032e-07
3.97882e-07
4.00977e-07
3.98681e-07
3.98935e-07
3.98706e-07
3.99754e-07
3.98071e-07
3.9806e-07
3.98226e-07
3.99003e-07
3.98641e-07
3.98976e-07
3.98636e-07
3.98683e-07
3.98807e-07
3.99068e-07
3.99185e-07
3.9913e-07
3.98959e-07
3.9901e-07
3.98419e-07
3.9883e-07
3.9833e-07
3.99142e-07
3.98447e-07
3.98881e-07
3.98794e-07
3.99668e-07
3.97895e-07
3.98841e-07
3.98367e-07
3.98943e-07
3.98257e-07
3.99066e-07
3.98168e-07
3.98847e-07
3.98295e-07
3.99226e-07
3.98083e-07
3.99321e-07
3.98479e-07
3.99746e-07
3.97913e-07
4.00734e-07
3.96253e-07
4.02333e-07
3.58763e-07
4.25629e-07
3.99253e-07
3.98289e-07
3.9788e-07
3.98455e-07
3.98499e-07
3.98399e-07
3.98492e-07
3.98458e-07
3.98801e-07
3.98262e-07
4.00085e-07
3.97755e-07
3.9965e-07
3.97734e-07
3.99415e-07
3.97857e-07
3.99903e-07
3.98316e-07
3.99609e-07
3.98785e-07
4.00537e-07
3.98902e-07
3.99887e-07
3.98596e-07
3.99388e-07
3.98959e-07
3.99648e-07
3.98478e-07
3.98786e-07
3.98408e-07
3.99814e-07
3.98513e-07
3.99223e-07
3.98511e-07
3.99485e-07
3.98618e-07
3.99229e-07
3.98379e-07
3.99696e-07
3.97752e-07
3.9864e-07
3.98873e-07
3.99252e-07
3.98192e-07
3.99404e-07
3.98491e-07
3.99071e-07
3.98355e-07
3.9918e-07
3.98466e-07
3.99126e-07
3.98259e-07
3.99142e-07
3.98208e-07
3.9944e-07
3.97625e-07
4.00657e-07
3.95815e-07
4.02513e-07
3.60244e-07
4.26181e-07
3.97818e-07
3.98418e-07
3.98422e-07
3.98868e-07
3.98546e-07
3.98474e-07
3.98546e-07
3.98456e-07
3.98348e-07
3.99336e-07
3.97417e-07
4.00018e-07
3.97513e-07
4.00023e-07
3.98294e-07
4.0083e-07
3.98561e-07
3.98834e-07
3.98638e-07
3.99225e-07
3.97889e-07
3.98889e-07
3.9798e-07
3.98933e-07
3.99037e-07
3.98946e-07
3.9879e-07
3.98622e-07
3.98821e-07
3.98796e-07
3.98868e-07
3.98256e-07
3.98683e-07
3.99052e-07
3.98663e-07
3.98906e-07
3.98354e-07
3.99007e-07
3.98527e-07
3.98918e-07
3.98951e-07
3.99453e-07
3.98011e-07
3.99023e-07
3.98249e-07
3.98958e-07
3.98215e-07
3.98964e-07
3.98233e-07
3.98856e-07
3.98311e-07
3.99472e-07
3.98244e-07
3.99351e-07
3.98508e-07
3.99235e-07
3.97906e-07
4.00911e-07
3.95986e-07
4.02661e-07
3.5999e-07
4.2587e-07
3.98815e-07
3.98768e-07
3.99152e-07
3.98431e-07
3.98482e-07
3.98422e-07
3.98524e-07
3.98506e-07
3.98604e-07
3.98517e-07
4.00316e-07
3.97438e-07
4.00672e-07
3.97325e-07
4.00123e-07
3.97899e-07
4.00263e-07
3.98122e-07
3.9958e-07
3.98633e-07
3.99868e-07
3.98763e-07
3.998e-07
3.98886e-07
3.99803e-07
3.9867e-07
3.99428e-07
3.9891e-07
3.9945e-07
3.98434e-07
3.99457e-07
3.98735e-07
3.99882e-07
3.98558e-07
3.99159e-07
3.98419e-07
3.99429e-07
3.98534e-07
3.99216e-07
3.98145e-07
3.99581e-07
3.97753e-07
3.98853e-07
3.98677e-07
3.994e-07
3.98199e-07
3.9927e-07
3.98498e-07
3.99056e-07
3.98392e-07
3.99064e-07
3.98439e-07
3.99086e-07
3.97943e-07
3.99056e-07
3.98294e-07
3.99903e-07
3.97479e-07
4.00404e-07
3.96106e-07
4.01586e-07
3.61457e-07
4.26479e-07
3.97888e-07
3.984e-07
3.97485e-07
3.98555e-07
3.98388e-07
3.98581e-07
3.98465e-07
3.98481e-07
3.98508e-07
3.99072e-07
3.97873e-07
4.00225e-07
3.97767e-07
4.00537e-07
3.98755e-07
3.99804e-07
3.98413e-07
3.99418e-07
3.98984e-07
3.9911e-07
3.98344e-07
3.9889e-07
3.98561e-07
3.98952e-07
3.98482e-07
3.98653e-07
3.98959e-07
3.98682e-07
3.98833e-07
3.98743e-07
3.98844e-07
3.98321e-07
3.98795e-07
3.98341e-07
3.98765e-07
3.99211e-07
3.9875e-07
3.98985e-07
3.98504e-07
3.98901e-07
3.98738e-07
3.98987e-07
3.98805e-07
3.99228e-07
3.98219e-07
3.9908e-07
3.98118e-07
3.98841e-07
3.98253e-07
3.98969e-07
3.98235e-07
3.98815e-07
3.98356e-07
3.99474e-07
3.98235e-07
3.99405e-07
3.98393e-07
3.9924e-07
3.9801e-07
4.00734e-07
3.96159e-07
4.01654e-07
3.60487e-07
4.25052e-07
3.9858e-07
3.97987e-07
3.99216e-07
3.98516e-07
3.98577e-07
3.9824e-07
3.98477e-07
3.98543e-07
3.98622e-07
3.98576e-07
3.99592e-07
3.98207e-07
3.99905e-07
3.98131e-07
3.99627e-07
3.97927e-07
4.00027e-07
3.97772e-07
4.00089e-07
3.98681e-07
3.99164e-07
3.98974e-07
3.99392e-07
3.98507e-07
3.99493e-07
3.98604e-07
3.9981e-07
3.98793e-07
3.9959e-07
3.98789e-07
3.9933e-07
3.9862e-07
3.9976e-07
3.98703e-07
3.99476e-07
3.98525e-07
3.98861e-07
3.98511e-07
3.98993e-07
3.986e-07
3.993e-07
3.98065e-07
3.99241e-07
3.97988e-07
3.98949e-07
3.98471e-07
3.99446e-07
3.98317e-07
3.99118e-07
3.98557e-07
3.99036e-07
3.98437e-07
3.99088e-07
3.98402e-07
3.99147e-07
3.98081e-07
3.98948e-07
3.98302e-07
3.99737e-07
3.97657e-07
4.00642e-07
3.96553e-07
4.01665e-07
3.6039e-07
4.26169e-07
3.97724e-07
3.98845e-07
3.97884e-07
3.98627e-07
3.97657e-07
3.98487e-07
3.98605e-07
3.98471e-07
3.9848e-07
3.99232e-07
3.9807e-07
3.99576e-07
3.9765e-07
4.00314e-07
3.97903e-07
3.99465e-07
3.98193e-07
4.00078e-07
3.98881e-07
3.99125e-07
3.98843e-07
3.9939e-07
3.98642e-07
3.9928e-07
3.98694e-07
3.99051e-07
3.98767e-07
3.98664e-07
3.99135e-07
3.98562e-07
3.98959e-07
3.98689e-07
3.98818e-07
3.97843e-07
3.98793e-07
3.98777e-07
3.98866e-07
3.99407e-07
3.98919e-07
3.98602e-07
3.98644e-07
3.98875e-07
3.98825e-07
3.99058e-07
3.9873e-07
3.99156e-07
3.9827e-07
3.99177e-07
3.98037e-07
3.98756e-07
3.98197e-07
3.98913e-07
3.98179e-07
3.98817e-07
3.98383e-07
3.99388e-07
3.98357e-07
3.99282e-07
3.98249e-07
3.995e-07
3.9753e-07
4.00735e-07
3.96345e-07
4.03916e-07
3.60407e-07
4.24988e-07
3.98668e-07
3.97686e-07
3.98627e-07
3.97534e-07
3.99219e-07
3.98639e-07
3.98498e-07
3.98499e-07
3.9853e-07
3.98354e-07
3.99839e-07
3.97953e-07
4.00137e-07
3.97846e-07
3.99939e-07
3.98006e-07
4.0014e-07
3.97949e-07
3.98868e-07
3.97803e-07
3.99723e-07
3.98366e-07
3.99196e-07
3.98517e-07
3.99144e-07
3.98747e-07
3.99218e-07
3.98714e-07
3.99724e-07
3.98903e-07
3.9958e-07
3.98868e-07
3.99318e-07
3.98623e-07
3.99682e-07
3.98438e-07
3.9909e-07
3.98514e-07
3.98624e-07
3.98582e-07
3.99311e-07
3.9851e-07
3.99431e-07
3.98089e-07
3.99132e-07
3.98055e-07
3.99039e-07
3.9842e-07
3.99291e-07
3.98407e-07
3.99111e-07
3.98587e-07
3.99146e-07
3.98269e-07
3.99194e-07
3.98357e-07
3.99306e-07
3.98235e-07
3.99297e-07
3.98067e-07
3.99841e-07
3.97863e-07
4.00816e-07
3.95018e-07
4.03306e-07
3.60796e-07
4.25628e-07
3.97755e-07
3.98875e-07
3.98396e-07
3.9963e-07
3.98504e-07
3.9837e-07
3.98541e-07
3.98453e-07
3.98491e-07
3.99168e-07
3.97648e-07
3.99808e-07
3.97846e-07
4.00347e-07
3.98219e-07
4.00331e-07
3.98741e-07
3.99418e-07
3.98959e-07
4.00445e-07
3.9874e-07
3.99667e-07
3.99354e-07
3.99452e-07
3.98941e-07
3.99258e-07
3.98835e-07
3.99238e-07
3.98879e-07
3.98433e-07
3.98826e-07
3.98661e-07
3.98653e-07
3.98773e-07
3.98833e-07
3.98107e-07
3.9898e-07
3.98985e-07
3.98899e-07
3.99329e-07
3.98929e-07
3.98224e-07
3.98642e-07
3.98837e-07
3.98695e-07
3.99226e-07
3.98652e-07
3.99027e-07
3.98318e-07
3.99144e-07
3.98024e-07
3.98731e-07
3.98193e-07
3.98949e-07
3.98256e-07
3.9881e-07
3.98327e-07
3.99288e-07
3.98164e-07
3.99358e-07
3.98321e-07
3.9935e-07
3.97676e-07
4.00898e-07
3.9552e-07
4.04376e-07
3.60597e-07
4.25065e-07
3.98835e-07
3.97765e-07
3.98363e-07
3.98013e-07
3.98351e-07
3.98453e-07
3.98484e-07
3.98388e-07
3.98493e-07
3.98566e-07
3.99865e-07
3.97981e-07
3.99627e-07
3.98314e-07
3.99918e-07
3.98137e-07
3.99502e-07
3.98509e-07
3.9977e-07
3.98174e-07
3.99507e-07
3.97937e-07
3.99165e-07
3.98031e-07
3.98967e-07
3.9854e-07
3.99123e-07
3.98717e-07
3.99057e-07
3.98773e-07
3.99708e-07
3.99205e-07
3.99364e-07
3.99136e-07
3.99298e-07
3.98692e-07
3.99399e-07
3.98402e-07
3.98983e-07
3.98514e-07
3.98794e-07
3.98606e-07
3.99441e-07
3.98562e-07
3.99444e-07
3.98145e-07
3.99076e-07
3.9821e-07
3.99107e-07
3.98384e-07
3.99211e-07
3.98505e-07
3.99075e-07
3.98459e-07
3.99073e-07
3.98218e-07
3.99153e-07
3.98375e-07
3.99455e-07
3.98351e-07
3.99419e-07
3.98122e-07
3.99721e-07
3.97561e-07
4.01075e-07
3.95323e-07
4.0413e-07
3.61431e-07
4.26031e-07
3.97905e-07
3.99538e-07
3.98439e-07
3.98436e-07
3.98519e-07
3.9853e-07
3.98553e-07
3.98408e-07
3.98474e-07
3.98793e-07
3.9828e-07
3.99985e-07
3.97987e-07
4.00139e-07
3.98428e-07
3.99854e-07
3.98805e-07
3.9961e-07
3.98561e-07
3.99326e-07
3.9905e-07
3.99295e-07
3.98933e-07
3.99191e-07
3.99915e-07
3.99577e-07
3.98847e-07
3.99228e-07
3.9891e-07
3.99171e-07
3.98975e-07
3.98447e-07