/*--------------------------------*- C++ -*----------------------------------*\
| =========                 |                                                 |
| \\      /  F ield         | OpenFOAM: The Open Source CFD Toolbox           |
|  \\    /   O peration     | Version:  2206                                  |
|   \\  /    A nd           | Website:  www.openfoam.com                      |
|    \\/     M anipulation  |                                                 |
\*---------------------------------------------------------------------------*/
FoamFile
{
    version     2.0;
    format      ascii;
    arch        "LSB;label=32;scalar=64";
    class       volScalarField;
    location    "200";
    object      p;
}
// * * * * * * * * * * * * * * * * * * * * * * * * * * * * * * * * * * * * * //

dimensions      [1 -1 -2 0 0 0 0];

internalField   nonuniform List<scalar> 
93840
(
2.81423
0.440993
2.8735
1.57795
0.449886
2.78944
0.483314
1.21718
0.588709
2.37871
1.16567
0.966507
1.24476
0.674141
2.15314
0.980188
1.07247
0.98211
1.41053
0.758008
2.04889
1.09304
0.961595
1.15455
0.751086
1.31285
0.76053
2.06379
0.988105
1.07665
0.96685
1.19667
0.823674
1.29098
0.798635
2.06809
1.09126
0.948761
1.13977
1.02303
1.14212
0.852474
1.16461
0.780905
2.08349
0.995637
1.08297
0.966146
1.14618
1.01414
1.10005
1.00199
1.1203
0.780928
2.09293
1.09239
0.951562
1.13644
1.02283
1.11014
1.02083
1.05647
1.00257
1.10329
0.775252
2.10284
0.996733
1.08083
0.962173
1.13778
1.02038
1.09217
1.00901
1.06562
1.01138
1.0849
0.776218
2.10588
1.0902
0.957053
1.12704
1.02058
1.10816
1.02622
1.06342
1.02365
1.05197
0.997081
1.08067
0.774085
2.11088
0.992607
1.0662
0.960229
1.13012
1.01928
1.09537
1.00811
1.07687
1.00946
1.05515
1.00425
1.07381
0.775588
2.11335
1.09245
0.955555
1.12615
1.01794
1.10419
1.03649
1.07777
1.02286
1.05771
1.0193
1.0478
0.99318
1.07106
0.774891
2.11647
0.995589
1.07447
0.96095
1.12075
1.01655
1.10249
1.0124
1.08345
1.00833
1.06663
0.995139
1.04911
0.999926
1.06713
0.776325
2.11806
1.08831
0.962538
1.11528
1.01814
1.10088
1.04329
1.07896
1.02151
1.0676
1.02061
1.05232
1.00806
1.0467
0.991998
1.06595
0.776592
2.12029
0.989584
1.06362
0.95605
1.11298
1.01315
1.10245
1.01346
1.08991
1.00304
1.07449
1.00411
1.05933
0.993909
1.04507
0.995623
1.0638
0.778352
2.12136
1.08593
0.951142
1.11224
1.01954
1.09775
1.04783
1.08062
1.03319
1.06419
1.01998
1.06576
1.01436
1.05196
1.00143
1.04616
0.990596
1.06332
0.778748
2.12298
0.995257
1.07881
0.964985
1.10798
1.01152
1.10712
1.01769
1.09425
0.99628
1.08314
1.00216
1.06956
0.996352
1.05523
0.99041
1.03864
0.993989
1.06204
0.780772
2.1237
1.07952
0.958403
1.1033
1.0142
1.09839
1.04607
1.08311
1.03214
1.06645
1.02388
1.06653
1.01419
1.05914
1.01514
1.04697
0.997802
1.04142
0.988811
1.062
0.781339
2.1244
0.981029
1.06684
0.958387
1.09983
1.01276
1.1033
1.02908
1.09596
1.01087
1.07302
0.995042
1.08118
0.996109
1.06509
0.996008
1.04989
0.987829
1.03603
0.994588
1.0612
0.783378
2.12467
1.0959
0.961342
1.10056
1.0184
1.09621
1.04275
1.08886
1.04163
1.0783
1.03656
1.06983
1.02202
1.07159
1.0137
1.05974
1.01527
1.04349
0.994897
1.03616
0.988937
1.06149
0.784161
2.12496
0.990689
1.06542
0.959232
1.09537
1.0143
1.10153
1.03135
1.09596
1.00858
1.08612
0.999188
1.0817
0.992631
1.0765
0.996249
1.06095
0.987004
1.0438
0.984646
1.03984
0.993709
1.0609
0.786297
2.12473
1.0808
0.940924
1.09448
1.01497
1.09237
1.03833
1.08874
1.04011
1.08301
1.03904
1.07366
1.03167
1.07237
1.01348
1.07683
1.0113
1.05721
1.01333
1.04053
0.988928
1.03875
0.989952
1.06128
0.787282
2.12489
0.981216
1.08706
0.958416
1.09176
1.01204
1.09829
1.03032
1.10209
1.02363
1.09351
1.01672
1.08193
0.99895
1.08368
0.995493
1.06833
0.995289
1.05457
0.990623
1.04403
0.984733
1.03817
0.992851
1.06102
0.789821
2.12448
1.08698
0.958276
1.09192
1.01718
1.08934
1.04038
1.0886
1.04221
1.08293
1.04228
1.07443
1.02365
1.06519
1.01468
1.07275
1.02761
1.06997
1.00207
1.05472
1.00934
1.03416
0.990296
1.04068
0.990085
1.06135
0.790822
2.12411
0.982016
1.06442
0.958545
1.08439
1.00516
1.09828
1.0298
1.10285
1.0285
1.09643
1.00938
1.08726
1.00469
1.07757
0.999942
1.07874
0.996475
1.06741
0.992551
1.04654
0.990486
1.04905
0.984974
1.03264
0.991232
1.06108
0.794111
2.12342
1.08749
0.955486
1.09069
1.01155
1.08808
1.04158
1.08656
1.05484
1.08672
1.04464
1.08081
1.03575
1.0719
1.01908
1.06359
1.01779
1.06775
1.01715
1.07293
1.00206
1.04766
1.00111
1.02999
0.990826
1.03584
0.987925
1.06145
0.795194
2.123
0.981592
1.06829
0.96664
1.08543
1.00359
1.0965
1.02669
1.10194
1.02561
1.09549
1.0288
1.09676
1.01161
1.0859
1.00275
1.0806
1.00174
1.07747
1.00729
1.06815
1.00714
1.04888
0.997247
1.04828
0.991889
1.03255
0.989582
1.06129
0.798994
2.12184
1.08301
0.952664
1.08802
1.00677
1.08272
1.04202
1.08578
1.06107
1.08914
1.04341
1.09013
1.03349
1.07826
1.03335
1.07069
1.01446
1.06454
1.01186
1.06375
1.00322
1.067
0.99528
1.04128
0.996059
1.02786
0.990471
1.03761
0.988063
1.06187
0.79977
2.1207
0.977389
1.07803
0.9675
1.08035
0.999384
1.09355
1.0262
1.10429
1.02444
1.10496
1.0352
1.09601
1.01718
1.09072
1.01194
1.08378
0.999825
1.08658
1.00635
1.08091
1.00557
1.06809
0.998585
1.04546
0.997849
1.0428
0.98743
1.02907
0.986733
1.06209
0.804816
2.11866
1.08623
0.974711
1.07806
1.00427
1.07509
1.04257
1.08538
1.06662
1.09594
1.04911
1.09256
1.0465
1.09195
1.03421
1.07709
1.0245
1.07125
1.00668
1.0725
1.01547
1.0724
1.00683
1.06311
1.00373
1.04329
0.991919
1.03103
0.992032
1.03834
0.985237
1.06313
0.805561
2.11734
0.986492
1.06072
0.961145
1.0822
0.997467
1.09399
1.02743
1.10275
1.03794
1.09913
1.02438
1.0901
1.02113
1.09814
1.0153
1.09291
1.01318
1.08594
0.998543
1.08666
1.00527
1.0755
0.998851
1.05835
1.01507
1.04242
0.989482
1.04714
0.985787
1.03063
0.988473
1.06393
0.811363
2.11668
1.07898
0.965364
1.07898
1.0083
1.07019
1.04003
1.08391
1.07312
1.08256
1.05224
1.08529
1.0506
1.09163
1.03654
1.08771
1.0391
1.07746
1.01863
1.07411
1.01644
1.0725
1.02615
1.07136
1.01808
1.05532
1.007
1.0448
1.00166
1.02892
0.994289
1.02827
0.983252
1.06982
0.787326
2.11548
0.978511
1.06182
0.963205
1.08062
0.989714
1.08944
1.02322
1.10027
1.06002
1.08882
1.02789
1.08846
1.02833
1.08877
1.02508
1.08922
1.01795
1.08587
1.00703
1.08795
1.00967
1.0828
1.00843
1.0732
1.00791
1.0579
0.997186
1.04458
0.991011
1.04077
0.988034
1.03216
0.984683
1.09377
0.792134
2.11375
1.07608
0.959964
1.07789
1.00701
1.06806
1.03797
1.08331
1.06563
1.07528
1.04403
1.08518
1.04475
1.08252
1.04724
1.08924
1.03966
1.08239
1.03453
1.07733
1.01995
1.07464
1.02591
1.07194
1.01956
1.06548
1.01283
1.05496
1.00417
1.04021
1.00066
1.03041
0.988955
1.0359
0.967939
1.08932
0.799426
2.11184
0.97493
1.07357
0.980338
1.07678
0.984643
1.08453
1.02371
1.09997
1.0492
1.09475
1.03389
1.08833
1.02473
1.09045
1.02972
1.08886
1.0213
1.08533
1.02068
1.07579
1.00562
1.08442
1.01225
1.07606
1.00657
1.06549
1.00201
1.05525
1.00272
1.0391
0.986032
1.04785
0.986513
1.02833
0.982147
1.08448
0.80236
2.11039
1.08159
0.988326
1.06293
1.00177
1.06866
1.03471
1.08326
1.05893
1.08147
1.0604
1.08854
1.03776
1.08084
1.04059
1.0861
1.05017
1.08971
1.03804
1.07572
1.0364
1.07593
1.02911
1.07255
1.02804
1.07273
1.02242
1.06548
1.0106
1.05282
1.01214
1.04089
0.995689
1.03632
0.988642
1.03429
0.978146
1.0822
0.809044
2.10929
0.99316
1.05451
0.986879
1.07618
0.987699
1.07802
1.02727
1.09368
1.04193
1.09202
1.03985
1.09736
1.03259
1.08971
1.03036
1.0955
1.02226
1.09227
1.02665
1.07566
1.0168
1.07538
1.01727
1.07411
1.01299
1.06491
1.01812
1.06297
1.01137
1.04766
1.00545
1.04274
0.986265
1.04431
0.986994
1.03278
0.983314
1.08505
0.785693
2.10767
1.06148
0.981579
1.04996
1.00162
1.06685
1.02666
1.0822
1.05018
1.0924
1.0528
1.07842
1.04733
1.0887
1.0438
1.08519
1.03272
1.09153
1.03955
1.08668
1.03773
1.07995
1.02565
1.07211
1.02728
1.071
1.02935
1.0571
1.03225
1.05907
1.02053
1.04452
1.00432
1.03932
0.996849
1.03461
0.987979
1.02929
0.977911
1.10565
0.791997
2.10569
0.971986
1.05674
0.975999
1.07361
0.990695
1.06928
1.03323
1.08565
1.0461
1.08401
1.05266
1.08263
1.02932
1.09479
1.04052
1.09291
1.02386
1.09261
1.03247
1.07906
1.03216
1.0781
1.02815
1.06939
1.01468
1.06385
1.03042
1.05199
1.02287
1.05481
1.01531
1.04704
1.00429
1.03931
0.990974
1.03898
0.990245
1.0345
0.975855
1.10051
0.797802
2.10362
1.08054
0.97089
1.06131
1.00817
1.06666
1.01912
1.07995
1.05081
1.09203
1.06459
1.07797
1.06173
1.08467
1.04337
1.08014
1.0508
1.08698
1.04252
1.08641
1.03994
1.07255
1.04816
1.07556
1.03269
1.06621
1.0359
1.05735
1.04295
1.05843
1.03341
1.05363
1.01591
1.04436
1.00616
1.03715
0.99334
1.03201
0.980302
1.04004
0.972041
1.09644
0.803794
2.10112
0.979115
1.06317
0.99213
1.06722
0.993814
1.06537
1.03967
1.07391
1.06525
1.08168
1.0551
1.08372
1.04547
1.08656
1.0412
1.08163
1.03331
1.08806
1.03842
1.08487
1.04567
1.07187
1.03594
1.07312
1.03207
1.06264
1.0341
1.05404
1.03416
1.05367
1.02239
1.05132
1.01132
1.04419
1.0056
1.03406
0.992057
1.03806
0.985918
1.03728
0.982816
1.09072
0.807927
2.09893
1.05936
0.978074
1.04821
1.00511
1.06633
1.01277
1.08012
1.04268
1.08346
1.05857
1.07631
1.05473
1.08391
1.05508
1.08418
1.05925
1.07972
1.0511
1.0845
1.04693
1.08283
1.05062
1.07158
1.04707
1.06923
1.04247
1.05881
1.04827
1.05335
1.03686
1.05268
1.02635
1.05193
1.01359
1.04063
1.00619
1.03056
0.994903
1.02817
0.974182
1.04128
0.979328
1.0872
0.813043
2.0974
1.0075
1.05552
0.999245
1.06619
0.998187
1.06022
1.04041
1.06711
1.07018
1.07473
1.06074
1.06901
1.05065
1.09176
1.03712
1.08315
1.05245
1.08267
1.04516
1.08067
1.03447
1.08026
1.04494
1.0708
1.04179
1.06527
1.03816
1.05624
1.03401
1.05181
1.03393
1.04967
1.02365
1.04927
1.0151
1.03936
1.00761
1.02815
0.992135
1.03946
0.986055
1.04607
0.988117
1.08987
0.793815
2.09508
1.04586
0.987473
1.03441
1.00215
1.06706
1.00795
1.08423
1.03669
1.08974
1.05083
1.08383
1.05794
1.08424
1.04871
1.08174
1.06861
1.07826
1.06306
1.0747
1.05192
1.0806
1.05202
1.0769
1.0559
1.06903
1.05619
1.06292
1.04279
1.05442
1.03884
1.0504
1.03054
1.05225
1.02098
1.04634
1.01839
1.03711
1.00519
1.02612
0.990089
1.03817
0.974806
1.03992
0.979368
1.10691
0.797873
2.09258
0.988289
1.04359
0.989069
1.06638
0.999108
1.05371
1.03842
1.06358
1.06821
1.07315
1.06283
1.07666
1.05223
1.08283
1.04312
1.08284
1.05183
1.07462
1.05151
1.07745
1.03855
1.07838
1.04705
1.07394
1.04921
1.06692
1.04849
1.06026
1.03972
1.05334
1.03556
1.04891
1.02662
1.05843
1.02215
1.04376
1.01473
1.03486
1.00178
1.03295
0.987235
1.04335
0.985337
1.04523
0.973229
1.10161
0.805275
2.08992
1.05827
1.0022
1.04197
1.00102
1.0656
1.00407
1.08353
1.02997
1.09196
1.03805
1.08343
1.04746
1.08935
1.04426
1.0849
1.06067
1.07887
1.072
1.0748
1.05663
1.07803
1.05607
1.07562
1.06278
1.07379
1.05574
1.0644
1.04975
1.06043
1.03752
1.05324
1.03236
1.05148
1.02216
1.06167
1.01944
1.04201
1.01424
1.03439
0.997691
1.03261
0.98641
1.04062
0.977371
1.04926
0.976375
1.09578
0.808008
2.08803
0.983616
1.03282
0.9904
1.066
1.00007
1.04808
1.03978
1.06264
1.068
1.06872
1.05765
1.07532
1.05343
1.08345
1.04923
1.07956
1.05117
1.07434
1.04947
1.07112
1.05247
1.07814
1.05372
1.07295
1.05152
1.07043
1.05151
1.06202
1.04732
1.05897
1.03503
1.05336
1.02854
1.05821
1.0191
1.06065
1.01786
1.04144
1.01154
1.03622
0.993772
1.03907
0.983935
1.0437
0.982582
1.05079
0.980722
1.09176
0.814318
2.08585
1.05622
1.0065
1.02452
1.00969
1.06765
1.00407
1.08233
1.02333
1.08991
1.03112
1.09562
1.04222
1.08753
1.04512
1.08667
1.05472
1.08099
1.05865
1.07548
1.05907
1.07663
1.05257
1.07468
1.06235
1.06985
1.06584
1.06912
1.05787
1.06205
1.04557
1.05909
1.03229
1.05492
1.02479
1.06301
1.0168
1.0609
1.01586
1.04059
1.00861
1.03781
0.99031
1.03787
0.980677
1.04441
0.979852
1.04948
0.980666
1.09469
0.794166
2.08385
0.994415
1.02381
0.993419
1.06166
0.993314
1.0433
1.03715
1.05641
1.06404
1.06372
1.0565
1.07987
1.05243
1.0823
1.05138
1.08638
1.05005
1.07568
1.05502
1.07575
1.05751
1.07465
1.05635
1.07279
1.05554
1.06738
1.05049
1.06662
1.05381
1.06322
1.04334
1.05896
1.02841
1.05927
1.02151
1.0661
1.01472
1.05967
1.0138
1.04235
1.00521
1.04154
0.987428
1.04361
0.979391
1.04577
0.986798
1.05714
0.985774
1.10891
0.800486
2.08148
1.04553
0.984178
1.03342
1.00689
1.06674
1.00193
1.08099
1.0228
1.09074
1.03008
1.09809
1.04182
1.08758
1.04876
1.08955
1.04914
1.0834
1.05603
1.07747
1.04934
1.07569
1.05599
1.07219
1.06328
1.07042
1.05945
1.06748
1.05534
1.06718
1.05178
1.06196
1.0404
1.05887
1.02469
1.06468
1.01922
1.06914
1.01285
1.06146
1.0107
1.04636
1.00156
1.04185
0.98877
1.04094
0.97797
1.04612
0.984609
1.04911
0.974365
1.104
0.804757
2.07927
1.0047
1.03293
0.998655
1.05724
1.00383
1.04507
1.03865
1.0507
1.05865
1.05476
1.05425
1.07009
1.05594
1.0764
1.054
1.08074
1.05747
1.083
1.0541
1.07899
1.05444
1.07399
1.05617
1.07254
1.05675
1.06892
1.05675
1.06936
1.05238
1.06703
1.0499
1.0628
1.03692
1.0656
1.02235
1.06822
1.01853
1.06794
1.01044
1.06058
1.00714
1.04924
0.99836
1.04386
0.984272
1.04493
0.978588
1.0444
0.987746
1.05365
0.976812
1.09909
0.810226
2.07653
1.03537
0.968793
1.03163
1.01032
1.06571
0.996235
1.07748
1.01946
1.09007
1.03443
1.09099
1.03783
1.08484
1.04947
1.08363
1.05493
1.08675
1.05355
1.08077
1.0552
1.07827
1.0543
1.07148
1.0602
1.06739
1.05854
1.06925
1.05492
1.0725
1.05053
1.06703
1.04805
1.06378
1.03328
1.07026
1.02253
1.06834
1.02262
1.06771
1.00753
1.06493
1.00439
1.05343
0.995282
1.04572
0.984214
1.04331
0.980565
1.04572
0.985125
1.05254
0.978842
1.09442
0.813272
2.07385
0.994842
1.04583
1.01594
1.04849
1.00517
1.04338
1.03814
1.04683
1.05717
1.0512
1.0617
1.06563
1.06617
1.06778
1.05393
1.07285
1.05742
1.07852
1.06016
1.07888
1.05529
1.07075
1.05272
1.0729
1.04942
1.06961
1.05581
1.07042
1.05305
1.07341
1.04867
1.06461
1.04603
1.06643
1.03055
1.07094
1.02554
1.06626
1.02298
1.06787
1.00524
1.0667
1.00252
1.05338
0.992627
1.04693
0.980511
1.04787
0.979576
1.04486
0.989552
1.05762
0.980634
1.08953
0.81874
2.07057
1.04155
0.980864
1.0258
0.995895
1.06656
0.992698
1.07628
1.0154
1.08719
1.03501
1.08539
1.04378
1.08382
1.04278
1.07057
1.05412
1.07746
1.05617
1.08172
1.05651
1.07661
1.06019
1.0768
1.05554
1.06946
1.0633
1.06641
1.0539
1.07025
1.05235
1.07426
1.04988
1.06579
1.0435
1.06871
1.0287
1.07065
1.03006
1.06561
1.02317
1.06993
1.00354
1.07127
1.00238
1.05781
0.990266
1.04834
0.982423
1.0479
0.980501
1.04577
0.981009
1.0607
0.980012
1.08502
0.820686
2.06758
0.985709
1.04335
1.00841
1.05274
1.0169
1.04114
1.03776
1.0469
1.06001
1.04539
1.06305
1.05933
1.05988
1.06468
1.06571
1.06702
1.05906
1.07243
1.05769
1.07584
1.06109
1.0741
1.05754
1.07235
1.05665
1.06831
1.04691
1.06813
1.05227
1.07266
1.04986
1.07318
1.05049
1.06475
1.04142
1.07309
1.03002
1.07002
1.03413
1.06337
1.02163
1.07197
1.00237
1.06871
1.00241
1.05796
0.989527
1.04982
0.980393
1.04821
0.98273
1.04545
0.990317
1.06151
0.984407
1.08203
0.826032
2.06538
1.04679
0.996214
1.02631
0.989501
1.06271
0.989609
1.07841
1.01297
1.08303
1.03601
1.08149
1.04453
1.06146
1.04124
1.07133
1.0504
1.07207
1.05589
1.0763
1.0564
1.07582
1.05835
1.07324
1.0606
1.07339
1.05474
1.06728
1.06416
1.07147
1.05109
1.07222
1.04949
1.0722
1.05383
1.06524
1.03804
1.07377
1.03442
1.06847
1.03875
1.06218
1.02256
1.07208
1.00532
1.06913
1.00183
1.06042
0.992597
1.04838
0.980349
1.04821
0.982244
1.04759
0.979542
1.06513
0.978116
1.08455
0.80986
2.06269
0.993499
1.03135
0.984195
1.05561
1.01237
1.03615
1.03836
1.04495
1.06336
1.04289
1.06576
1.04649
1.05602
1.06335
1.05998
1.06855
1.06264
1.07027
1.05962
1.07282
1.05674
1.07461
1.05713
1.07225
1.05463
1.06998
1.05333
1.06869
1.04576
1.07155
1.04979
1.07483
1.04906
1.07034
1.05322
1.06848
1.03561
1.07358
1.03958
1.06642
1.04095
1.06049
1.02112
1.07316
1.00778
1.06773
1.00212
1.06054
0.99363
1.04694
0.978388
1.04854
0.980185
1.04628
0.990856
1.06382
0.983136
1.09901
0.81407
2.06009
1.03792
0.983391
1.03621
0.992452
1.06179
0.993246
1.08118
1.01331
1.07833
1.03404
1.07485
1.03629
1.06681
1.04949
1.07289
1.05324
1.06333
1.05492
1.0719
1.05535
1.07794
1.05529
1.0779
1.05467
1.07286
1.05577
1.0725
1.05284
1.06955
1.06004
1.07451
1.04784
1.07393
1.05138
1.06868
1.05396
1.07347
1.03657
1.07202
1.04258
1.06348
1.04289
1.05989
1.01978
1.07393
1.0092
1.06557
1.00456
1.05972
0.99469
1.04586
0.975607
1.04889
0.980684
1.04913
0.987098
1.06344
0.976145
1.09503
0.818638
2.05722
0.985206
1.03361
0.98291
1.05292
1.02091
1.03547
1.03799
1.03964
1.06586
1.04405
1.05993
1.05084
1.06473
1.05196
1.05024
1.05785
1.05789
1.06466
1.06217
1.07122
1.06282
1.07403
1.05247
1.07687
1.05339
1.0735
1.0541
1.07434
1.05139
1.07176
1.04749
1.07473
1.0474
1.07586
1.05281
1.06697
1.05113
1.07428
1.03815
1.07042
1.04523
1.06028
1.04157
1.05966
1.01771
1.07147
1.01125
1.06451
1.00582
1.05906
0.993182
1.04705
0.973363
1.04913
0.981565
1.05224
0.984632
1.06238
0.983436
1.09039
0.821944
2.05471
1.04357
0.975298
1.02723
1.00242
1.05438
0.992155
1.07754
1.01537
1.07714
1.03317
1.07151
1.03256
1.07392
1.02482
1.0619
1.05325
1.06287
1.05434
1.06259
1.05443
1.07073
1.05561
1.07483
1.05548
1.07844
1.05291
1.07522
1.05221
1.07672
1.04937
1.07354
1.05651
1.07601
1.04806
1.07395
1.05538
1.06597
1.05073
1.07835
1.04046
1.06852
1.04642
1.05818
1.04018
1.06142
1.02166
1.07174
1.01286
1.06298
1.00703
1.0566
0.993226
1.05096
0.972905
1.04957
0.980356
1.0569
0.989946
1.06128
0.984691
1.08713
0.826226
2.05197
0.975136
1.03707
0.989442
1.05011
1.01357
1.03235
1.03783
1.03776
1.06764
1.04096
1.05273
1.05096
1.05993
1.05386
1.06949
1.05645
1.0553
1.06246
1.06258
1.06758
1.0624
1.07185
1.05839
1.07178
1.05664
1.07689
1.05705
1.07512
1.05076
1.0776
1.0501
1.07528
1.04963
1.07655
1.04812
1.07432
1.05557
1.06574
1.04723
1.07541
1.0458
1.06639
1.04565
1.05798
1.03874
1.06131
1.02228
1.06966
1.01329
1.06094
1.01015
1.05511
0.990563
1.05185
0.975098
1.05343
0.979998
1.05718
0.991925
1.06098
0.984555
1.08905
0.811103
2.04951
1.05005
0.983817
1.02099
1.00237
1.06073
0.992882
1.07651
1.01461
1.07502
1.03096
1.07062
1.03045
1.07155
1.03127
1.07021
1.03685
1.06563
1.05028
1.0593
1.05254
1.06542
1.04948
1.07179
1.05772
1.06808
1.0516
1.07372
1.05791
1.07655
1.04938
1.07753
1.05041
1.07456
1.05698
1.07733
1.05037
1.07229
1.05651
1.06568
1.04658
1.07423
1.0486
1.06405
1.04618
1.05671
1.03733
1.0636
1.02389
1.06851
1.01496
1.0599
1.01341
1.05485
0.990633
1.05352
0.980095
1.05577
0.985463
1.05617
0.994047
1.0592
0.986999
1.10147
0.814664
2.047
0.982913
1.03592
0.996179
1.04659
1.01652
1.03116
1.03873
1.03532
1.06573
1.04151
1.0494
1.0494
1.05588
1.05472
1.06304
1.05457
1.05578
1.05966
1.05368
1.06115
1.05834
1.06555
1.06165
1.07091
1.0628
1.07447
1.05926
1.07178
1.05518
1.07666
1.0494
1.07626
1.05452
1.07468
1.05165
1.07658
1.05125
1.07209
1.05533
1.06717
1.04943
1.07236
1.05048
1.06164
1.0472
1.05721
1.03637
1.06585
1.02226
1.06772
1.0168
1.05691
1.01449
1.05542
0.987925
1.05331
0.985294
1.05579
0.988243
1.05437
0.998187
1.05557
0.980854
1.09739
0.819881
2.04441
1.04884
0.986993
1.02063
1.00075
1.05532
0.992522
1.07381
1.01325
1.07506
1.02869
1.07359
1.03318
1.07248
1.03028
1.07557
1.03513
1.06373
1.04658
1.06632
1.04786
1.06461
1.05334
1.06819
1.05204
1.06927
1.05939
1.06728
1.05875
1.07474
1.05719
1.07711
1.05186
1.07639
1.05462
1.07414
1.05756
1.07725
1.05375
1.07026
1.05687
1.06791
1.05064
1.07053
1.05061
1.05959
1.04676
1.05602
1.03458
1.06766
1.0216
1.06639
1.01949
1.0539
1.01577
1.05616
0.992
1.05211
0.989546
1.05502
0.9919
1.05246
0.99336
1.0531
0.982991
1.09317
0.822672
2.04171
0.994041
1.03248
0.994194
1.0407
1.00601
1.03123
1.03996
1.03531
1.06648
1.04206
1.04614
1.05034
1.05477
1.05566
1.05763
1.05448
1.06269
1.0617
1.04964
1.05793
1.0499
1.06258
1.05284
1.06681
1.06518
1.06738
1.06356
1.07185
1.0581
1.07075
1.05462
1.07718
1.05307
1.07396
1.05817
1.07375
1.05372
1.07591
1.05299
1.06966
1.05602
1.07024
1.0515
1.06879
1.05202
1.05745
1.04518
1.05547
1.03259
1.06876
1.02269
1.06524
1.02311
1.05236
1.01541
1.05662
0.993964
1.05086
0.993484
1.05351
0.991031
1.05213
0.998854
1.05318
0.982991
1.08829
0.827968
2.03865
1.04233
0.987839
1.02199
0.989865
1.05889
0.993767
1.07118
1.01469
1.07201
1.02769
1.07327
1.03683
1.07362
1.03116
1.073
1.03324
1.06883
1.03935
1.0625
1.04565
1.06973
1.04738
1.06772
1.05147
1.06499
1.05236
1.06605
1.05912
1.06949
1.05747
1.07313
1.0549
1.07699
1.05573
1.07339
1.057
1.07318
1.05506
1.07577
1.05654
1.06815
1.05798
1.06966
1.05202
1.06695
1.05146
1.05575
1.04446
1.05584
1.03072
1.0705
1.02494
1.06386
1.02362
1.05023
1.01398
1.05698
0.998269
1.04897
0.99716
1.05226
0.989642
1.04785
0.993235
1.05655
0.982527
1.08343
0.830228
2.03559
1.00082
1.02588
0.997729
1.04299
1.0258
1.03073
1.03956
1.03285
1.06579
1.04269
1.04682
1.04981
1.04143
1.05215
1.05929
1.05478
1.05927
1.05923
1.05452
1.06492
1.05294
1.06189
1.05013
1.06425
1.05826
1.06512
1.06482
1.06483
1.05893
1.07302
1.0596
1.07032
1.05271
1.07683
1.05772
1.0722
1.06025
1.07387
1.05369
1.07419
1.05634
1.06754
1.05636
1.07032
1.05282
1.06494
1.05124
1.05452
1.04282
1.05601
1.02925
1.07051
1.02663
1.06216
1.02559
1.04912
1.01244
1.05523
1.0027
1.04628
0.997247
1.05127
0.989287
1.05397
0.989307
1.05944
0.981838
1.08085
0.835172
2.03294
1.03722
0.991524
1.01329
0.982885
1.05088
0.990898
1.06926
1.01446
1.07007
1.02899
1.06753
1.03683
1.06712
1.04213
1.07205
1.04235
1.06985
1.03757
1.06462
1.04217
1.06425
1.05161
1.06437
1.04811
1.06279
1.05436
1.06476
1.05368
1.06694
1.05772
1.06793
1.05597
1.07254
1.05393
1.07573
1.05978
1.0709
1.05834
1.07469
1.05466
1.0739
1.05892
1.0656
1.05712
1.06916
1.05175
1.06279
1.05022
1.05406
1.04082
1.05535
1.02838
1.07154
1.02725
1.06027
1.02617
1.04811
1.01273
1.05403
1.00376
1.0431
0.997144
1.0515
0.986204
1.05357
0.985999
1.05861
0.98896
1.08284
0.821315
2.03086
0.998853
1.01965
1.00094
1.04635
1.01691
1.02913
1.04025
1.03074
1.06505
1.0419
1.04348
1.05178
1.05004
1.05684
1.04599
1.05332
1.048
1.05739
1.05723
1.06534
1.056
1.06132
1.05353
1.06352
1.05963
1.06315
1.0566
1.06193
1.06089
1.06679
1.05668
1.0711
1.05785
1.07159
1.05179
1.07541
1.06117
1.06942
1.05869
1.07414
1.05332
1.07255
1.05833
1.06532
1.05522
1.06941
1.05148
1.06118
1.04897
1.05412
1.0388
1.05587
1.02761
1.07156
1.02759
1.05851
1.02589
1.04836
1.01383
1.05262
1.00454
1.04152
0.994475
1.05316
0.98318
1.05533
0.985683
1.05588
0.990138
1.09494
0.825229
2.0282
1.03498
0.988412
1.00916
0.980143
1.05639
0.992889
1.06846
1.01585
1.06946
1.03047
1.06476
1.03522
1.06118
1.03027
1.05736
1.0433
1.06306
1.04138
1.06319
1.04364
1.06194
1.04965
1.06182
1.05151
1.06593
1.05228
1.06147
1.05506
1.06288
1.0536
1.06695
1.05655
1.06537
1.05448
1.07391
1.05296
1.07317
1.06235
1.07008
1.05793
1.07353
1.05747
1.07159
1.05933
1.06403
1.05526
1.06927
1.05016
1.06167
1.04746
1.05342
1.03669
1.05681
1.02539
1.07094
1.02907
1.05731
1.02541
1.04795
1.01457
1.05116
1.00647
1.04192
0.991983
1.05605
0.981372
1.05829
0.986706
1.05385
0.983313
1.09119
0.829889
2.02548
1.00622
1.0178
0.996849
1.04454
1.03009
1.02558
1.03964
1.0302
1.06342
1.03934
1.04253
1.04537
1.04944
1.05234
1.0548
1.05127
1.05111
1.05842
1.05184
1.06124
1.05573
1.0616
1.05139
1.06443
1.0512
1.06349
1.05829
1.06039
1.05521
1.06077
1.05609
1.06757
1.05601
1.06884
1.055
1.07334
1.05298
1.07307
1.06281
1.06772
1.06029
1.07298
1.05251
1.07081
1.05841
1.06534
1.05316
1.06927
1.04898
1.06016
1.04549
1.05366
1.03455
1.05901
1.02564
1.06932
1.02991
1.05643
1.02481
1.04969
1.01582
1.04946
1.00452
1.0412
0.989216
1.05905
0.979665
1.05824
0.988796
1.05431
0.985625
1.0867
0.833013
2.02304
1.02882
0.98218
1.00553
0.984605
1.04248
0.989645
1.06941
1.0152
1.06816
1.03258
1.06249
1.03922
1.05771
1.03959
1.06101
1.03846
1.06503
1.04365
1.06417
1.0439
1.06373
1.04737
1.05728
1.04911
1.06253
1.0484
1.06187
1.0568
1.06019
1.05258
1.06272
1.05274
1.06741
1.0549
1.06541
1.05303
1.07469
1.05404
1.07171
1.06336
1.06756
1.05838
1.07182
1.0557
1.06963
1.05779
1.06599
1.05303
1.06897
1.04777
1.06059
1.04346
1.0535
1.03225
1.0617
1.02834
1.06848
1.03137
1.0562
1.0243
1.04961
1.0161
1.04772
1.00501
1.04236
0.987558
1.06045
0.982966
1.05893
0.988477
1.0524
0.992364
1.08342
0.837201
2.02035
1.00586
1.02074
0.989526
1.03821
1.03501
1.0248
1.03992
1.02863
1.06185
1.03807
1.04168
1.04033
1.04369
1.05424
1.0415
1.04905
1.05221
1.05028
1.0518
1.05701
1.05541
1.06067
1.05227
1.06095
1.05141
1.06406
1.05537
1.06168
1.05726
1.0638
1.05605
1.06125
1.05432
1.06893
1.05363
1.06918
1.05451
1.07302
1.05292
1.07008
1.06227
1.06837
1.06036
1.07128
1.05444
1.06874
1.05741
1.06724
1.05112
1.0694
1.04635
1.06054
1.04163
1.0544
1.03005
1.06596
1.03056
1.06742
1.03144
1.05474
1.02421
1.05042
1.01601
1.04598
1.00386
1.04176
0.985213
1.061
0.983858
1.05965
0.990173
1.05098
0.99413
1.08499
0.823729
2.01797
1.02538
0.981474
1.00358
0.992467
1.05027
0.987731
1.06891
1.01353
1.06775
1.03508
1.05886
1.03406
1.05742
1.02728
1.05743
1.04544
1.06157
1.04138
1.06331
1.04282
1.05897
1.0456
1.06232
1.04927
1.06042
1.05011
1.06449
1.0529
1.06055
1.05458
1.06367
1.0516
1.06478
1.05331
1.06875
1.05407
1.06686
1.05461
1.07278
1.05637
1.06889
1.06214
1.07016
1.05791
1.06964
1.05354
1.07074
1.0566
1.06798
1.05084
1.07062
1.04551
1.06087
1.0393
1.05521
1.02811
1.07021
1.02927
1.06649
1.0311
1.05407
1.02089
1.051
1.01556
1.04383
1.00409
1.04135
0.985629
1.06031
0.98709
1.05887
0.992396
1.04904
0.996649
1.09609
0.8269
2.01533
1.00021
1.02106
0.976061
1.03482
1.02563
1.02107
1.03899
1.02736
1.0612
1.039
1.04304
1.04516
1.04194
1.04892
1.04944
1.05475
1.04352
1.05021
1.05357
1.05333
1.05539
1.05632
1.05381
1.05783
1.05534
1.06384
1.05295
1.06358
1.05389
1.05976
1.05686
1.06321
1.05478
1.06416
1.05161
1.06963
1.05142
1.07078
1.05392
1.07159
1.05556
1.06739
1.05987
1.0694
1.05914
1.06984
1.0525
1.06906
1.05588
1.06905
1.04977
1.06895
1.04383
1.06038
1.03692
1.05853
1.02636
1.07345
1.02984
1.06512
1.02974
1.05402
1.02268
1.0509
1.01588
1.04142
1.00477
1.04362
0.984412
1.05892
0.992531
1.05814
0.994458
1.04963
0.989056
1.09245
0.832358
2.01303
1.0221
0.989975
1.01652
1.00124
1.04773
0.992263
1.06786
1.01135
1.06795
1.03493
1.05907
1.03848
1.05788
1.03778
1.05856
1.03778
1.05193
1.04657
1.06174
1.0424
1.06346
1.04573
1.06077
1.04433
1.06233
1.04779
1.06373
1.04964
1.0639
1.05587
1.05921
1.05366
1.06422
1.0509
1.06805
1.05233
1.06981
1.0525
1.06797
1.05662
1.07098
1.05807
1.06763
1.06041
1.07039
1.05663
1.07037
1.05348
1.07156
1.05547
1.06916
1.04923
1.06992
1.04238
1.06114
1.03471
1.06213
1.02481
1.07544
1.02918
1.06408
1.03148
1.05277
1.024
1.05024
1.01543
1.03913
1.00331
1.04575
0.986422
1.05585
0.997364
1.05883
0.997128
1.04831
0.994474
1.08846
0.834743
2.01016
0.994746
1.01782
0.969835
1.03263
1.02976
1.02054
1.03788
1.02597
1.06321
1.04049
1.04219
1.04584
1.02985
1.04516
1.03933
1.0524
1.04641
1.04777
1.04635
1.0513
1.05231
1.05391
1.05582
1.05724
1.05279
1.06027
1.0532
1.064
1.05465
1.06206
1.05509
1.06091
1.05527
1.06583
1.05567
1.06603
1.05474
1.0691
1.05249
1.06916
1.05771
1.07006
1.05757
1.06614
1.0579
1.07045
1.05735
1.06803
1.05193
1.07077
1.05373
1.07019
1.0473
1.06951
1.04048
1.06309
1.03251
1.06644
1.02461
1.07494
1.03016
1.06297
1.03255
1.05079
1.02491
1.04959
1.01645
1.03783
1.0015
1.04873
0.991252
1.05381
0.998753
1.05647
1.00032
1.04836
0.993187
1.08468
0.840156
2.0071
1.02409
0.992896
1.0224
1.00056
1.04338
0.992242
1.06508
1.01074
1.06752
1.03371
1.06114
1.03704
1.05798
1.04001
1.05622
1.03737
1.0566
1.04356
1.0566
1.04371
1.062
1.04527
1.05876
1.04621
1.06193
1.0481
1.06346
1.04804
1.06346
1.0542
1.06187
1.05431
1.0632
1.0525
1.06434
1.05318
1.06915
1.05049
1.07061
1.05298
1.06693
1.0594
1.06889
1.05851
1.06624
1.05794
1.07104
1.05553
1.06914
1.05251
1.07202
1.05327
1.07027
1.04527
1.07116
1.03871
1.06438
1.03022
1.07126
1.02584
1.07356
1.03142
1.06186
1.03518
1.04881
1.02499
1.04745
1.01499
1.03729
0.999081
1.05117
0.997018
1.05264
1.00167
1.05638
1.00309
1.04566
0.996077
1.08106
0.841925
2.00431
0.987471
1.01421
0.976765
1.03048
1.03129
1.02051
1.03761
1.02758
1.06352
1.04194
1.04534
1.04066
1.03191
1.05148
1.04314
1.04897
1.04449
1.04986
1.04627
1.0495
1.04798
1.05251
1.05048
1.0542
1.05403
1.05763
1.05544
1.06224
1.05487
1.06219
1.05418
1.06073
1.0526
1.06361
1.05286
1.06699
1.05857
1.06736
1.05209
1.06926
1.05591
1.06675
1.06015
1.06766
1.05737
1.06498
1.05699
1.07063
1.05499
1.0691
1.05248
1.07187
1.05289
1.07085
1.04316
1.07143
1.03646
1.06608
1.02807
1.07454
1.02774
1.0721
1.03306
1.06048
1.03806
1.04672
1.02451
1.0476
1.01414
1.03778
0.997287
1.04993
1.00105
1.05082
1.003
1.05513
1.00272
1.04609
0.993203
1.07773
0.847521
2.00095
1.02948
0.99082
1.02537
1.00167
1.04316
0.989976
1.06289
1.00927
1.06739
1.03194
1.06187
1.03942
1.05769
1.03886
1.04879
1.03632
1.05489
1.04397
1.04987
1.04733
1.05457
1.04337
1.05607
1.04758
1.06034
1.04619
1.06097
1.04947
1.06512
1.05052
1.06417
1.05492
1.06287
1.05401
1.06464
1.05234
1.06489
1.05386
1.06921
1.05116
1.06864
1.05511
1.06588
1.05919
1.06667
1.05739
1.06521
1.05576
1.07105
1.05387
1.06847
1.05151
1.07172
1.05311
1.07147
1.04162
1.07444
1.03495
1.06971
1.02617
1.07792
1.03069
1.07071
1.03438
1.0586
1.03846
1.04516
1.02456
1.0476
1.01268
1.03704
0.998708
1.04886
1.0061
1.0492
1.00688
1.05383
1.00544
1.04419
0.996787
1.07441
0.848628
1.99766
0.991782
1.01419
0.984377
1.02705
1.02844
1.02052
1.03907
1.02806
1.06317
1.04174
1.04862
1.04138
1.03984
1.04793
1.04201
1.04941
1.0458
1.04783
1.04501
1.04745
1.0485
1.05321
1.04983
1.05439
1.04974
1.05651
1.05684
1.05958
1.05746
1.06215
1.05715
1.06335
1.05506
1.06263
1.05512
1.06379
1.05311
1.06478
1.05767
1.06734
1.05296
1.06859
1.05612
1.0651
1.05852
1.06664
1.05602
1.06459
1.05401
1.07115
1.05248
1.06894
1.05115
1.07095
1.05107
1.07259
1.04044
1.07557
1.03366
1.07162
1.02454
1.07949
1.0332
1.06931
1.03539
1.05637
1.03908
1.04345
1.02373
1.04818
1.01108
1.03806
1.00132
1.04837
1.0087
1.04725
1.00826
1.05215
1.00527
1.04343
0.993302
1.07242
0.854426
1.99453
1.02791
0.985075
1.0208
1.00251
1.0427
0.9898
1.05967
1.00879
1.06632
1.03308
1.06214
1.03736
1.056
1.03391
1.05545
1.0368
1.0485
1.04294
1.05161
1.04629
1.05131
1.04719
1.05713
1.04421
1.0585
1.05031
1.05725
1.04828
1.06207
1.04988
1.06594
1.05204
1.06469
1.05522
1.06323
1.05565
1.06456
1.05332
1.06412
1.05403
1.06843
1.05419
1.0676
1.05449
1.0645
1.05775
1.06692
1.05561
1.065
1.05236
1.0725
1.05098
1.07123
1.05211