/*--------------------------------*- C++ -*----------------------------------*\
| =========                 |                                                 |
| \\      /  F ield         | OpenFOAM: The Open Source CFD Toolbox           |
|  \\    /   O peration     | Version:  2206                                  |
|   \\  /    A nd           | Website:  www.openfoam.com                      |
|    \\/     M anipulation  |                                                 |
\*---------------------------------------------------------------------------*/
FoamFile
{
    version     2.0;
    format      ascii;
    arch        "LSB;label=32;scalar=64";
    class       volScalarField;
    location    "200";
    object      pMean;
}
// * * * * * * * * * * * * * * * * * * * * * * * * * * * * * * * * * * * * * //

dimensions      [1 -1 -2 0 0 0 0];

internalField   nonuniform List<scalar> 
93840
(
2.31991
0.581326
2.28096
1.45929
0.608934
2.10818
0.629863
1.21679
0.685105
1.84749
1.1647
0.94988
1.19524
0.777678
1.69814
0.980384
1.11346
0.948516
1.27561
0.832361
1.60019
1.099
0.953582
1.14051
0.819256
1.21318
0.855279
1.5843
0.979562
1.11016
0.946838
1.13906
0.87321
1.18723
0.886941
1.56783
1.09893
0.956449
1.133
0.993347
1.12293
0.904267
1.12125
0.888898
1.57792
0.978884
1.10171
0.955761
1.10086
0.969828
1.09113
0.971645
1.09658
0.884758
1.56107
1.09855
0.969611
1.12459
0.996032
1.10042
0.986653
1.06749
0.993674
1.085
0.891059
1.5805
0.979564
1.09801
0.964663
1.09359
0.977533
1.07543
0.979187
1.0632
0.995095
1.07443
0.889512
1.56969
1.09774
0.970968
1.11742
1.00223
1.08806
0.99586
1.06723
0.999459
1.05314
1.00061
1.07025
0.891958
1.57975
0.980802
1.09689
0.970761
1.08771
0.991129
1.06864
0.985347
1.06171
0.997553
1.05433
0.995023
1.07135
0.890803
1.56798
1.09707
0.972983
1.11138
1.00465
1.08122
1.00254
1.06591
1.00048
1.05626
1.00404
1.04826
0.999634
1.0666
0.893381
1.57932
0.981943
1.09538
0.976149
1.08358
0.996348
1.06514
0.991555
1.05783
0.996864
1.0551
0.996619
1.05093
0.996058
1.06747
0.892482
1.56563
1.09601
0.975173
1.10586
1.00712
1.07739
1.00728
1.06487
1.00344
1.05941
1.00363
1.05249
1.00381
1.04653
0.999513
1.06516
0.895553
1.57686
0.983366
1.09367
0.981051
1.08012
0.999885
1.06276
0.996885
1.05634
0.997013
1.0529
0.997898
1.05086
0.997695
1.04875
0.996739
1.06489
0.894685
1.56269
1.09468
0.977727
1.10091
1.0094
1.07438
1.01068
1.06393
1.00611
1.05991
1.00524
1.05601
1.00506
1.04865
1.00442
1.04551
1.0006
1.06345
0.897724
1.57424
0.984516
1.09184
0.985503
1.07695
1.00324
1.06059
1.00127
1.05529
0.998721
1.05281
0.998656
1.05038
0.999234
1.04884
0.997805
1.04655
0.997984
1.06282
0.896981
1.56009
1.09375
0.98045
1.09638
1.01165
1.07148
1.01354
1.06268
1.00856
1.06037
1.00627
1.0575
1.00673
1.05371
1.00713
1.04561
1.005
1.04385
1.00139
1.06185
0.900093
1.57095
0.985548
1.08976
0.989274
1.07398
1.00627
1.05871
1.00509
1.05453
1.00214
1.05289
1.00037
1.05037
1.00012
1.04734
0.999993
1.04796
0.999535
1.04472
0.999256
1.06084
0.899501
1.55798
1.0931
0.983371
1.09249
1.01368
1.06913
1.0158
1.06131
1.01087
1.05997
1.00736
1.05854
1.00804
1.05532
1.00748
1.05166
1.00706
1.04358
1.00542
1.04343
1.00253
1.06034
0.902897
1.56681
0.987035
1.08759
0.992688
1.07128
1.00885
1.05714
1.00839
1.05359
1.00565
1.05263
1.00279
1.0484
1.00339
1.0478
1.00185
1.04611
1.00269
1.04625
1.0007
1.0431
1.00034
1.05907
0.902208
1.55612
1.09232
0.986105
1.08883
1.0157
1.06699
1.01767
1.05992
1.01334
1.05836
1.00982
1.05547
1.01137
1.05552
1.00888
1.05309
1.00769
1.04882
1.00793
1.04262
1.00632
1.04207
1.00361
1.05917
0.904001
1.55272
0.988853
1.08534
0.996049
1.06852
1.01135
1.05584
1.01125
1.05251
1.0085
1.05102
1.0073
1.04836
1.00635
1.04767
1.00466
1.04654
1.00348
1.045
1.00468
1.04434
1.0021
1.04215
1.00075
1.05746
0.90134
1.54596
1.09133
0.98888
1.08556
1.01774
1.06496
1.01939
1.05858
1.01602
1.05737
1.01253
1.05543
1.01349
1.05435
1.01121
1.05209
1.01122
1.05139
1.00977
1.0465
1.00811
1.04226
1.00667
1.04149
1.00384
1.05747
0.911959
1.55122
0.990891
1.08308
0.999049
1.06583
1.01372
1.05462
1.01378
1.05145
1.01127
1.05072
1.00932
1.04913
1.00873
1.0478
1.00695
1.04613
1.00574
1.04549
1.00472
1.04416
1.00586
1.04285
1.00266
1.04172
1.00102
1.054
0.910774
1.54843
1.0901
0.991818
1.08233
1.01961
1.06331
1.02106
1.05729
1.01825
1.05594
1.01494
1.05467
1.01493
1.05437
1.01327
1.052
1.01379
1.05119
1.01149
1.0503
1.01056
1.04533
1.00879
1.04231
1.00573
1.0412
1.0037
1.05527
0.911606
1.55125
0.99291
1.08066
1.00194
1.06353
1.01571
1.05359
1.016
1.05042
1.01351
1.04996
1.0118
1.04868
1.01071
1.04789
1.00936
1.04639
1.00786
1.04547
1.00654
1.04465
1.00581
1.04322
1.00618
1.04327
1.00258
1.04178
1.00151
1.05503
0.911423
1.5464
1.08876
0.994771
1.07932
1.02144
1.06176
1.02262
1.05602
1.02022
1.05465
1.01734
1.05488
1.01641
1.05296
1.01462
1.05312
1.01414
1.05147
1.01353
1.05
1.01076
1.04846
1.01079
1.04435
1.00827
1.04207
1.00518
1.04081
1.00344
1.05578
0.911522
1.54822
0.995036
1.07808
1.00442
1.06169
1.01738
1.05256
1.01784
1.04951
1.01548
1.04956
1.01383
1.04883
1.01262
1.04817
1.01165
1.04671
1.01025
1.04573
1.00896
1.04443
1.00806
1.0436
1.00716
1.0432
1.00572
1.04257
1.00317
1.04136
1.00129
1.0561
0.912823
1.54295
1.08711
0.997876
1.0766
1.0228
1.06052
1.02413
1.05489
1.022
1.05346
1.01932
1.05377
1.01684
1.05319
1.0166
1.05169
1.01472
1.05146
1.01502
1.04998
1.01384
1.04876
1.01241
1.04719
1.01064
1.044
1.00891
1.04163
1.00479
1.04034
1.00218
1.0562
0.914554
1.5441
0.997303
1.07509
1.00681
1.06011
1.01872
1.05167
1.01943
1.0487
1.01711
1.04884
1.01533
1.04863
1.01445
1.04781
1.01368
1.04712
1.01347
1.04584
1.01104
1.04514
1.01025
1.04336
1.00895
1.04258
1.0077
1.04289
1.00604
1.04266
1.00358
1.04166
1.00034
1.05534
0.915983
1.53954
1.08517
1.00095
1.0742
1.02409
1.05939
1.02545
1.05388
1.02362
1.05247
1.02051
1.0526
1.01925
1.05229
1.01791
1.05075
1.01699
1.05045
1.01572
1.04963
1.01602
1.04853
1.01462
1.04733
1.01293
1.04607
1.01119
1.04344
1.00873
1.04133
1.00484
1.04058
1.00163
1.05755
0.905855
1.54063
0.99957
1.0724
1.00896
1.05873
1.01984
1.05078
1.02074
1.04795
1.0185
1.04856
1.01702
1.04819
1.0165
1.04738
1.01667
1.04699
1.01548
1.04564
1.01434
1.04506
1.01228
1.04457
1.01096
1.04319
1.00999
1.04162
1.00827
1.04226
1.0064
1.0421
1.00366
1.04233
0.999194
1.06836
0.907517
1.53569
1.08333
1.00396
1.07193
1.02521
1.05837
1.02654
1.0531
1.02501
1.05185
1.02148
1.05159
1.02093
1.0511
1.01969
1.05069
1.01838
1.05018
1.01747
1.04964
1.01672
1.04828
1.01565
1.04716
1.01445
1.04633
1.01336
1.04514
1.01108
1.04317
1.00896
1.04114
1.00486
1.04112
0.995931
1.06622
0.911941
1.53659
1.00183
1.07008
1.01105
1.05752
1.02079
1.05
1.02179
1.04736
1.02013
1.04858
1.01862
1.04706
1.01816
1.04757
1.01775
1.04588
1.018
1.04566
1.01677
1.04488
1.01505
1.0448
1.01331
1.04427
1.01211
1.04274
1.01117
1.04158
1.00932
1.04181
1.00696
1.04177
1.00366
1.04224
0.997214
1.06292
0.913002
1.53199
1.08112
1.00624
1.06989
1.02629
1.05748
1.02749
1.05249
1.02608
1.05091
1.0226
1.04927
1.02313
1.05032
1.02117
1.0493
1.02082
1.04942
1.01905
1.04914
1.01711
1.04933
1.01709
1.0481
1.01582
1.04663
1.0147
1.04542
1.01328
1.04433
1.01131
1.04248
1.00881
1.04117
1.00435
1.04163
0.998442
1.06163
0.91695
1.53314
1.00418
1.06792
1.01298
1.0564
1.02163
1.04928
1.02263
1.04674
1.02124
1.04737
1.02134
1.04645
1.02013
1.04687
1.01931
1.04646
1.01914
1.0456
1.01919
1.04538
1.01702
1.04413
1.01551
1.04413
1.01412
1.04394
1.01279
1.04253
1.01166
1.04146
1.00972
1.04202
1.007
1.04203
1.00358
1.04256
0.999224
1.06228
0.905174
1.52863
1.07889
1.00842
1.06821
1.02725
1.05664
1.02828
1.05201
1.02708
1.05048
1.02482
1.0494
1.02372
1.04945
1.02249
1.04865
1.02214
1.04847
1.02125
1.04813
1.0193
1.04778
1.01828
1.04802
1.01754
1.04699
1.01634
1.04591
1.01485
1.04508
1.01333
1.04429
1.01102
1.04225
1.00841
1.04155
1.00399
1.04245
0.998851
1.07257
0.909299
1.52953
1.00656
1.06575
1.01482
1.05539
1.02235
1.04857
1.02338
1.04602
1.02246
1.04606
1.02164
1.04623
1.0223
1.04577
1.02115
1.04583
1.02056
1.04588
1.02
1.04509
1.02008
1.04458
1.01802
1.04395
1.01601
1.04381
1.01475
1.04333
1.01322
1.04233
1.01181
1.04161
1.00986
1.04206
1.00698
1.04218
1.00326
1.04266
0.993929
1.06926
0.911644
1.52478
1.07659
1.01084
1.06667
1.02804
1.05593
1.02893
1.05157
1.02798
1.05001
1.02636
1.04937
1.02499
1.04865
1.02255
1.04774
1.02333
1.04797
1.02255
1.04768
1.02152
1.04703
1.02017
1.04691
1.01879
1.04707
1.01795
1.04619
1.01646
1.04551
1.01498
1.04431
1.01329
1.04359
1.01123
1.04211
1.00807
1.04191
1.00378
1.04299
0.996728
1.06683
0.915681
1.52618
1.0091
1.06367
1.01661
1.05443
1.02296
1.04791
1.02408
1.0453
1.02375
1.04513
1.02246
1.04576
1.0224
1.04563
1.02287
1.04472
1.02249
1.04536
1.02149
1.04522
1.02113
1.04435
1.02084
1.04415
1.01831
1.04366
1.01662
1.04358
1.01513
1.04295
1.01351
1.04207
1.01218
1.0412
1.00992
1.04195
1.00693
1.04233
1.00309
1.04278
0.997579
1.06322
0.917149
1.52177
1.07454
1.01298
1.06519
1.02872
1.05533
1.02954
1.05111
1.02874
1.05022
1.02662
1.04881
1.02584
1.04818
1.02448
1.04821
1.02426
1.04664
1.02368
1.04635
1.02332
1.04636
1.02172
1.04625
1.02013
1.04597
1.01915
1.04616
1.0177
1.04581
1.01651
1.04504
1.01505
1.04392
1.01366
1.0431
1.01125
1.04224
1.00768
1.04222
1.00336
1.04358
0.999093
1.06168
0.920039
1.52348
1.01092
1.06189
1.0182
1.05357
1.0235
1.04718
1.02479
1.04481
1.02449
1.04429
1.02382
1.04516
1.02303
1.04563
1.02327
1.04485
1.02351
1.04479
1.02361
1.04441
1.0223
1.04455
1.02174
1.0441
1.02134
1.04371
1.01859
1.04361
1.01709
1.04339
1.01562
1.04259
1.0142
1.04168
1.01248
1.04114
1.00991
1.0421
1.00672
1.04251
1.00276
1.04326
0.999178
1.06255
0.910138
1.51879
1.07238
1.01484
1.06396
1.02937
1.05484
1.03013
1.05067
1.02936
1.05032
1.02671
1.04877
1.02651
1.04737
1.02579
1.04674
1.02495
1.04611
1.02509
1.04574
1.02449
1.04616
1.02362
1.04598
1.02208
1.04559
1.02057
1.0449
1.01994
1.04578
1.01743
1.04535
1.01647
1.04441
1.01512
1.04346
1.01363
1.04267
1.01099
1.04239
1.0074
1.04279
1.00321
1.04412
0.999609
1.07122
0.912835
1.51999
1.01323
1.0602
1.0196
1.05272
1.02395
1.04644
1.02551
1.04436
1.02545
1.04337
1.02581
1.04408
1.02469
1.04446
1.02414
1.04432
1.02432
1.04467
1.02414
1.04428
1.02388
1.04402
1.02292
1.04416
1.02215
1.04357
1.02155
1.04268
1.01913
1.0432
1.01718
1.04313
1.0161
1.04251
1.01439
1.04165
1.01269
1.04078
1.01002
1.04216
1.00643
1.04283
1.00234
1.04347
0.994359
1.06836
0.915542
1.51508
1.07054
1.01662
1.0626
1.02998
1.05444
1.03065
1.05025
1.0299
1.0499
1.02717
1.04848
1.02599
1.047
1.02628
1.04615
1.02638
1.04658
1.02542
1.04645
1.02534
1.04531
1.02446
1.0453
1.02386
1.04509
1.02249
1.04513
1.02115
1.04433
1.02033
1.04528
1.01819
1.0447
1.01671
1.04421
1.01524
1.04332
1.01371
1.04276
1.01079
1.04252
1.00716
1.04277
1.00311
1.04429
0.997667
1.06603
0.917451
1.51652
1.015
1.05878
1.02124
1.05189
1.02439
1.04579
1.02625
1.04393
1.02638
1.04292
1.02688
1.04329
1.02634
1.04396
1.0256
1.04401
1.02511
1.0437
1.02488
1.04405
1.02465
1.04428
1.02415
1.04351
1.02311
1.04358
1.02233
1.04337
1.02178
1.04236
1.01946
1.04263
1.01791
1.0428
1.01632
1.04225
1.0145
1.04154
1.01287
1.04077
1.01
1.04216
1.00641
1.04263
1.00309
1.0436
0.997208
1.06372
0.919744
1.5119
1.06883
1.01819
1.0616
1.03049
1.05408
1.03106
1.04986
1.03034
1.04939
1.02779
1.0487
1.02614
1.04709
1.02678
1.04595
1.0262
1.04545
1.02641
1.04539
1.02598
1.04559
1.02575
1.04487
1.02511
1.04504
1.0239
1.04504
1.02277
1.04465
1.02149
1.04405
1.02056
1.04422
1.01874
1.04421
1.01692
1.04369
1.01535
1.04297
1.01353
1.04267
1.01086
1.04243
1.00727
1.04249
1.0033
1.04441
0.999479
1.06519
0.911024
1.51348
1.01671
1.05742
1.02236
1.0512
1.02477
1.04518
1.02691
1.04355
1.02721
1.04254
1.02743
1.04276
1.02775
1.04282
1.02679
1.04364
1.0259
1.0436
1.02583
1.04361
1.02543
1.04347
1.02511
1.04377
1.02406
1.04338
1.02368
1.0432
1.02255
1.04282
1.02188
1.04207
1.01994
1.04226
1.0181
1.04224
1.0167
1.04182
1.01476
1.04127
1.01297
1.04049
1.01016
1.04195
1.00682
1.04248
1.00321
1.04377
0.998213
1.07181
0.913876
1.50877
1.06735
1.01981
1.06097
1.03085
1.05377
1.0314
1.04951
1.03065
1.0489
1.02827
1.04816
1.02744
1.04666
1.02697
1.04538
1.0271
1.04537
1.02728
1.0448
1.02645
1.04524
1.0266
1.04484
1.02578
1.04472
1.02518
1.0445
1.02397
1.04454
1.02297
1.0443
1.02173
1.04387
1.02075
1.04383
1.01914
1.04372
1.01705
1.04342
1.01542
1.04279
1.01365
1.04215
1.01099
1.04213
1.00778
1.04234
1.00325
1.04439
0.995753
1.06957
0.916688
1.51035
1.01809
1.05651
1.02334
1.05056
1.02515
1.04463
1.02751
1.04322
1.02802
1.04236
1.02825
1.04239
1.02806
1.04212
1.02856
1.0429
1.02732
1.04339
1.02655
1.04333
1.02651
1.04298
1.02595
1.0431
1.02556
1.0434
1.02466
1.04284
1.02404
1.04288
1.02278
1.04248
1.02189
1.04188
1.02025
1.04205
1.01838
1.04194
1.01687
1.04167
1.01485
1.04105
1.0133
1.04072
1.01025
1.04128
1.00753
1.04262
1.00332
1.04394
0.996608
1.06693
0.918872
1.50547
1.066
1.02093
1.06015
1.03081
1.05345
1.03164
1.04916
1.03088
1.04847
1.02884
1.04793
1.02808
1.04582
1.02802
1.04548
1.02783
1.04506
1.02738
1.04437
1.02754
1.04421
1.02707
1.04435
1.02698
1.04434
1.02597
1.04437
1.02541
1.04441
1.02414
1.04404
1.02319
1.04393
1.02182
1.0436
1.02075
1.04321
1.01931
1.04347
1.01713
1.04306
1.01566
1.04241
1.01365
1.04205
1.01138
1.04145
1.00782
1.04243
1.00326
1.04438
0.999254
1.06514
0.920347
1.507
1.01943
1.05595
1.0241
1.05066
1.02553
1.04414
1.02808
1.04287
1.02875
1.04229
1.02895
1.04148
1.02906
1.04247
1.02918
1.04216
1.02863
1.04276
1.028
1.04262
1.02708
1.04259
1.02728
1.04285
1.02631
1.04298
1.02549
1.04306
1.02498
1.04251
1.0243
1.04241
1.0229
1.04227
1.02183
1.04164
1.02052
1.04167
1.01839
1.04159
1.01707
1.04136
1.01509
1.04088
1.01343
1.04058
1.0107
1.0415
1.00757
1.04262
1.00333
1.04402
0.999133
1.06313
0.922465
1.50196
1.06471
1.02201
1.05939
1.03111
1.05305
1.03186
1.0488
1.03104
1.04824
1.02917
1.04719
1.02836
1.04658
1.02832
1.04493
1.02842
1.04413
1.02827
1.0442
1.02786
1.04402
1.02822
1.04369
1.02723
1.0434
1.02721
1.04392
1.02652
1.04396
1.02551
1.04404
1.02421
1.04371
1.02333
1.04353
1.02201
1.04328
1.02086
1.04306
1.01938
1.04314
1.01723
1.04269
1.01579
1.04222
1.01373
1.04178
1.01128
1.04148
1.00785
1.04234
1.0033
1.04437
1.0006
1.06128
0.924017
1.5035
1.02075
1.05527
1.02494
1.05001
1.02596
1.04364
1.0286
1.04253
1.02939
1.04223
1.02952
1.0423
1.02946
1.04178
1.02933
1.04203
1.0297
1.04216
1.02853
1.04239
1.02828
1.04199
1.02786
1.04241
1.02778
1.04284
1.02682
1.04287
1.02586
1.04291
1.02497
1.04243
1.0244
1.04224
1.02309
1.042
1.02194
1.04127
1.02069
1.0414
1.01869
1.04126
1.01725
1.0411
1.0153
1.04065
1.01372
1.04061
1.01088
1.0414
1.00758
1.04239
1.0034
1.04399
1.00022
1.05982
0.925979
1.49889
1.06344
1.02288
1.0586
1.03152
1.05265
1.03211
1.04847
1.03123
1.04805
1.02941
1.04711
1.02911
1.04626
1.02863
1.04495
1.02899
1.04433
1.02886
1.04387
1.02885
1.04373
1.02857
1.0435
1.02806
1.04314
1.02768
1.04291
1.02728
1.04365
1.02664
1.04364
1.02575
1.04379
1.02451
1.04343
1.02342
1.0431
1.02208
1.04289
1.02085
1.04283
1.01934
1.04289
1.01747
1.04246
1.01588
1.04182
1.01377
1.04161
1.01107
1.04143
1.00809
1.04243
1.00343
1.04447
1.0012
1.06056
0.919895
1.50051
1.02197
1.0547
1.0256
1.04937
1.02639
1.04313
1.02907
1.04215
1.02994
1.04224
1.02999
1.04186
1.02988
1.04164
1.03041
1.04182
1.03011
1.04196
1.02979
1.04205
1.02908
1.04226
1.02867
1.04207
1.02816
1.04248
1.02791
1.04291
1.027
1.04275
1.026
1.04265
1.02516
1.04213
1.02445
1.04204
1.02322
1.04174
1.02216
1.04126
1.02073
1.04127
1.01869
1.04103
1.01723
1.04078
1.01552
1.04048
1.01383
1.0405
1.01123
1.04127
1.00762
1.04227
1.00349
1.04417
1.0006
1.06626
0.921494
1.49569
1.06217
1.02374
1.05806
1.03193
1.05224
1.03237
1.04816
1.03145
1.04793
1.02979
1.04685
1.02956
1.0462
1.02932
1.0452
1.02907
1.04389
1.02922
1.04351
1.0293
1.0435
1.02909
1.04297
1.02899
1.04302
1.02863
1.04282
1.028
1.04263
1.02737
1.04317
1.02684
1.04351
1.0258
1.04352
1.02465
1.04312
1.02346
1.0426
1.02218
1.04256
1.02081
1.04248
1.01947
1.04255
1.01755
1.04223
1.0159
1.04163
1.01382
1.04138
1.01116
1.04143
1.00824
1.04242
1.00353
1.04432
0.998368
1.06497
0.9234
1.49722
1.02329
1.05414
1.02651
1.0487
1.02678
1.04264
1.0295
1.04179
1.03046
1.04203
1.03069
1.04211
1.0307
1.04164
1.03059
1.04184
1.03058
1.04195
1.03068
1.04188
1.03001
1.04179
1.02945
1.04191
1.02887
1.04194
1.02826
1.0422
1.02793
1.04263
1.02718
1.04271
1.02615
1.04238
1.02527
1.04208
1.02446
1.04185
1.02349
1.04141
1.02215
1.04101
1.02071
1.04098
1.01873
1.04086
1.01728
1.04057
1.01562
1.04021
1.01392
1.0404
1.01134
1.04119
1.00764
1.04224
1.00359
1.04403
0.999131
1.06307
0.924782
1.49254
1.06103
1.02463
1.05711
1.03231
1.05184
1.03262
1.04787
1.03163
1.04778
1.03039
1.04653
1.03029
1.04519
1.03033
1.04484
1.02996
1.04366
1.0298
1.04353
1.0297
1.04323
1.02959
1.04293
1.02951
1.04233
1.02935
1.04279
1.02884
1.04276
1.02817
1.04275
1.02756
1.04279
1.02697
1.0433
1.02585
1.04324
1.02471
1.04273
1.02356
1.04227
1.02227
1.04241
1.02083
1.04223
1.01953
1.04219
1.01755
1.04198
1.01586
1.04139
1.01388
1.04117
1.0113
1.04132
1.00834
1.04237
1.0039
1.04393
0.99981
1.06152
0.927226
1.49389
1.02439
1.05361
1.02743
1.04806
1.02727
1.04219
1.02987
1.04145
1.03096
1.04165
1.03121
1.04168
1.03157
1.04108
1.03107
1.04164
1.03103
1.04192
1.03086
1.04165
1.03081
1.04161
1.03036
1.04137
1.0299
1.04188
1.02897
1.04184
1.02849
1.04199
1.0282
1.04233
1.02725
1.04262
1.02627
1.0422
1.02537
1.04195
1.02442
1.04155
1.02362
1.04115
1.02205
1.04085
1.02061
1.04083
1.01884
1.04062
1.01723
1.0403
1.01567
1.03989
1.01407
1.04026
1.0115
1.04096
1.00781
1.04213
1.00392
1.04373
1.00039
1.06177
0.920703
1.48942
1.06
1.02564
1.0562
1.03267
1.05135
1.03282
1.04759
1.03177
1.04762
1.031
1.0466
1.03119
1.04531
1.03054
1.04441
1.03113
1.04425
1.03052
1.0436
1.03007
1.04328
1.03001
1.04286
1.02977
1.04251
1.02987
1.04201
1.0297
1.04247
1.02903
1.04248
1.0283
1.04255
1.02777
1.04268
1.027
1.04316
1.02589
1.04289
1.02496
1.04255
1.02359
1.042
1.02248
1.04213
1.02089
1.04194
1.01946
1.04203
1.01767
1.04183
1.01604
1.0413
1.01395
1.0409
1.01153
1.04114
1.00847
1.04217
1.00425
1.04382
1.00086
1.0675
0.922461
1.49084
1.02544
1.05292
1.0284
1.04743
1.02787
1.04176
1.03019
1.04112
1.03143
1.04128
1.03168
1.04168
1.03155
1.04134
1.03235
1.04122
1.03144
1.04103
1.03162
1.0418
1.03126
1.04151
1.03083
1.04131
1.03069
1.04116
1.03012
1.04167
1.02914
1.04166
1.02874
1.04185
1.02842
1.04225
1.02729
1.04244
1.02634
1.04196
1.02543
1.04179
1.02447
1.04134
1.0236
1.04089
1.0221
1.04079
1.02056
1.04071
1.01874
1.04031
1.01723
1.04009
1.01577
1.03965
1.01425
1.03999
1.01167
1.04073
1.0079
1.04186
1.00432
1.04358
0.997728
1.06563
0.92455
1.48648
1.05903
1.0265
1.05541
1.033
1.05096
1.03298
1.04732
1.03192
1.04746
1.03147
1.0465
1.03181
1.0453
1.03163
1.04459
1.03131
1.04373
1.03163
1.04332
1.03113
1.04277
1.03059
1.04282
1.03052
1.04241
1.0304
1.04218
1.03021
1.04181
1.0297
1.04225
1.02914
1.04226
1.02848
1.04235
1.02786
1.04252
1.02708
1.04286
1.02595
1.04269
1.02499
1.04223
1.0237
1.04174
1.02245
1.0419
1.02083
1.04163
1.01968
1.04162
1.0178
1.04157
1.01605
1.04101
1.01412
1.04063
1.01173
1.04096
1.00864
1.04188
1.00459
1.04358
0.999559
1.06399
0.92601
1.48778
1.02635
1.05237
1.02916
1.04686
1.02837
1.04134
1.03053
1.04079
1.03187
1.04102
1.03239
1.04149
1.03193
1.04085
1.03251
1.04126
1.03254
1.0411
1.03224
1.04088
1.03178
1.04133
1.03154
1.04143
1.03122
1.04111
1.03083
1.04106
1.0303
1.04157
1.0294
1.04156
1.0289
1.0417
1.02847
1.04195
1.02748
1.0423
1.02642
1.04191
1.02548
1.04168
1.02453
1.0411
1.02367
1.04071
1.02208
1.04063
1.02038
1.04055
1.01879
1.03993
1.01729
1.03992
1.01589
1.03941
1.01444
1.03976
1.01169
1.04056
1.00814
1.04149
1.00477
1.04327
0.999846
1.06189
0.928195
1.48331
1.05796
1.02725
1.05457
1.03334
1.05056
1.03309
1.04706
1.03205
1.04732
1.03181
1.0465
1.03209
1.04539
1.0321
1.04475
1.03194
1.04358
1.03176
1.04332
1.03165
1.04281
1.03163
1.0427
1.03092
1.04248
1.03076
1.04206
1.0307
1.04177
1.03035
1.04169
1.02975
1.04203
1.0292
1.04204
1.02864
1.04205
1.02787
1.04235
1.02712
1.04263
1.02607
1.04245
1.02505
1.04195
1.0237
1.04155
1.0224
1.04163
1.02091
1.04131
1.01971
1.04146
1.01779
1.04127
1.01611
1.04068
1.01419
1.04026
1.01189
1.04082
1.00876
1.04135
1.00504
1.04312
1.00129
1.05988
0.92945
1.48425
1.02738
1.05185
1.03
1.04637
1.02892
1.04094
1.03088
1.04048
1.03225
1.04079
1.03303
1.04187
1.03234
1.04168
1.03284
1.04146
1.03266
1.04134
1.03259
1.04082
1.03279
1.04118
1.03195
1.041
1.03168
1.04135
1.03133
1.04113
1.03107
1.04116
1.03038
1.04154
1.02956
1.04145
1.02907
1.04163
1.02858
1.04193
1.0276
1.04204
1.02657
1.04178
1.02554
1.04146
1.02462
1.04091
1.02365
1.04057
1.02208
1.0405
1.02049
1.04033
1.01887
1.03976
1.0174
1.03955
1.01609
1.03918
1.01459
1.03954
1.01171
1.04032
1.00844
1.0411
1.00523
1.04293
1.00125
1.05839
0.931622
1.47999
1.05708
1.02794
1.05383
1.03364
1.05014
1.03322
1.04676
1.03215
1.04719
1.03212
1.04674
1.03216
1.045
1.03253
1.04362
1.03249
1.0433
1.03263
1.04241
1.03272
1.04273
1.03218
1.04218
1.03213
1.04244
1.03122
1.04214
1.03094
1.04187
1.0308
1.0416
1.03035
1.04164
1.0298
1.04184
1.02939
1.04186
1.02865
1.04203
1.02793
1.04208
1.02719
1.04231
1.02612
1.04218
1.02505
1.04178
1.02372
1.0413
1.02235
1.04136
1.02091
1.04108
1.01967
1.04108
1.01788
1.041
1.01617
1.04041
1.01423
1.04001
1.01201
1.04063
1.00869
1.04087
1.00528
1.04268
1.00214
1.05918
0.925601
1.48095
1.02813
1.05135
1.03068
1.04596
1.02942
1.04049
1.03124
1.04022
1.03263
1.04056
1.03355
1.04164
1.03333
1.04243
1.03312
1.04094
1.0335
1.04118
1.03325
1.04094
1.03262
1.0407
1.03289
1.04113
1.0322
1.041
1.03182
1.04097
1.03144
1.04108
1.03114
1.04118
1.03059
1.04143
1.02971
1.04137
1.02919
1.04147
1.02872
1.04178
1.02772
1.04204
1.02666
1.04176
1.02562
1.04137
1.02468
1.04075
1.02365
1.04046
1.02209
1.04035
1.02051
1.04017
1.01895
1.0395
1.01754
1.03936
1.01613
1.03902
1.0147
1.03933
1.01183
1.04015
1.00903
1.04098
1.0056
1.04273
1.00166
1.06465
0.927503
1.47677
1.05627
1.02862
1.0532
1.0339
1.04969
1.03335
1.04644
1.03221
1.04701
1.03243
1.04688
1.03211
1.04509
1.03204
1.04235
1.03336
1.04332
1.03326
1.04178
1.03371
1.04196
1.03343
1.04248
1.03271
1.0418
1.03232
1.04202
1.03143
1.04218
1.03124
1.0418
1.03088
1.04144
1.03031
1.04155
1.0299
1.04163
1.02935
1.04182
1.02869
1.04196
1.02798
1.04201
1.02717
1.04218
1.02611
1.04198
1.02502
1.04155
1.02368
1.04117
1.02235
1.0411
1.02094
1.04082
1.01963
1.04084
1.01786
1.04082
1.01619
1.04011
1.01427
1.03987
1.01207
1.04045
1.00864
1.04067
1.00547
1.04245
0.999244
1.06306
0.929622
1.47723
1.02886
1.05087
1.03128
1.04556
1.02997
1.0401
1.03161
1.03999
1.033
1.04047
1.03392
1.04132
1.03447
1.04114
1.03457
1.04125
1.03385
1.04119
1.0341
1.04077
1.03353
1.04093
1.03305
1.04059
1.03286
1.0409
1.03245
1.04108
1.03186
1.04099
1.03149
1.04094
1.03117
1.04113
1.03071
1.04121
1.02984
1.0412
1.02936
1.04138
1.02877
1.04163
1.0278
1.04189
1.02666
1.04168
1.02568
1.04124
1.02471
1.04055
1.02366
1.0403
1.02211
1.0401
1.02056
1.03983
1.01875
1.03941
1.01757
1.03918
1.01619
1.03876
1.01475
1.03903
1.01202
1.04
1.00914
1.0408
1.0058
1.04258
1.00019
1.06074
0.931391
1.47353
1.05545
1.02928
1.05268
1.03413
1.04927
1.03342
1.04613
1.03225
1.04683
1.03266
1.04701
1.03254
1.0452
1.03292
1.04362
1.03357
1.04285
1.03409
1.04232
1.03415
1.04196
1.0339
1.0418
1.03342
1.04179
1.03309
1.04128
1.03252
1.04157
1.03172
1.04195
1.03144
1.04163
1.03107
1.0412
1.03044
1.04143
1.02995
1.04165
1.02939
1.04169
1.02878
1.04183
1.02795
1.04195
1.02727
1.04196
1.0261
1.04178
1.02499
1.04144
1.02368
1.04102
1.02232
1.04088
1.02103
1.04064
1.01988
1.04058
1.01785
1.04052
1.01619
1.03983
1.01443
1.0396
1.01219
1.0402
1.00886
1.04038
1.00567
1.04217
1.00106
1.05931
0.932908
1.47256
1.02973
1.05046
1.03189
1.0452
1.03039
1.03974
1.03196
1.0398
1.03337
1.04042
1.0342
1.04113
1.03511
1.04169
1.03477
1.04115
1.03476
1.04112
1.03426
1.04098
1.03421
1.04086
1.03379
1.04084
1.03343
1.04092
1.03317
1.04097
1.03264
1.04083
1.03208
1.04091
1.03165
1.04081
1.03128
1.04117
1.03078
1.04113
1.03002
1.04112
1.02946
1.04137
1.02877
1.04158
1.02784
1.04168
1.02679
1.04159
1.02569
1.0411
1.02472
1.04042
1.02364
1.04016
1.02215
1.0399
1.02056
1.0397
1.01881
1.03921
1.01745
1.03906
1.01621
1.03851
1.01485
1.03874
1.01221
1.03974
1.00931
1.04044
1.00584
1.04221
1.00182
1.05954
0.927156
1.46891
1.05473
1.02989
1.05207
1.03431
1.04875
1.03349
1.04583
1.03225
1.04664
1.0329
1.04692
1.03303
1.04535
1.03237
1.04251
1.03426
1.0429
1.03434
1.04255
1.03443
1.04172
1.0342
1.04157
1.03412
1.0416
1.0337
1.04126
1.03324
1.04114
1.03271
1.04132
1.03197
1.04166
1.03148
1.04158
1.03112
1.04114
1.03049
1.04137
1.03003
1.04147
1.02942
1.04159
1.02879
1.04176
1.02801
1.04177
1.02728
1.04183
1.02613
1.04167
1.02497
1.04124
1.02369
1.0408
1.02235
1.04065
1.02099
1.0404
1.01988
1.04035
1.01804
1.04031
1.01628
1.03954
1.01445
1.03934
1.01238
1.03997
1.00905
1.04017
1.00579
1.04204
1.00183
1.06443
0.930877
1.46922
1.03031
1.04992
1.03256
1.04484
1.03107
1.03937
1.0323
1.03964
1.03371
1.04039
1.03454
1.041
1.03508
1.04064
1.03591
1.04119
1.03526
1.04115
1.03456
1.04092
1.03463
1.04088
1.03439
1.04064
1.03398
1.04069
1.03354
1.04088
1.03323
1.04089
1.03279
1.04072
1.03225
1.04093
1.03175
1.04073
1.03131
1.04105
1.03089
1.041
1.03008
1.04111
1.02949
1.04136
1.02875
1.0415
1.02791
1.04154
1.02686
1.04149
1.02573
1.04091
1.02471
1.04028
1.02367
1.04004
1.02216
1.0397
1.02062
1.03946
1.01883
1.03901
1.01751
1.0389
1.01628
1.03834
1.01501
1.03851
1.0124
1.03947
1.00951
1.04032
1.00592
1.04206
0.999338
1.06216
0.93302
1.46593
1.05411
1.03063
1.05153
1.03445
1.04831
1.03347
1.04554
1.03222
1.04647
1.03313
1.04678
1.03355
1.04561
1.03325
1.04332
1.03433
1.04288
1.03427
1.04181
1.03485
1.04211
1.03481
1.04172
1.0345
1.04169
1.03422
1.04134
1.03391
1.04119
1.03337
1.041
1.03291
1.04127
1.03213
1.04157
1.03155
1.04145
1.03123
1.04113
1.03056
1.04133
1.0301
1.04139
1.02947
1.04151
1.02888
1.04168
1.02804
1.04158
1.02729
1.04166
1.02608
1.04148
1.02495
1.04102
1.02373
1.04063
1.02238
1.04042
1.02106
1.04011
1.01996
1.04009
1.01804
1.04002
1.01631
1.03927
1.01458
1.0391
1.01248
1.03963
1.00914
1.04017
1.00576
1.04195
1.00069
1.06092
0.934226
1.46604
1.03096
1.04942
1.03317
1.04453
1.03163
1.03888
1.03261
1.03951
1.03402
1.0404
1.03487
1.04115
1.0353
1.0406
1.03639
1.04112
1.03596
1.04099
1.03512
1.04129
1.035
1.04089
1.03471
1.04069
1.03457
1.04056
1.03399
1.04042
1.03372
1.04071
1.03341
1.04079
1.03287
1.04057
1.03227
1.04084
1.03184
1.04074
1.03131
1.04099
1.03094
1.04089
1.0301
1.04106
1.02955
1.04123
1.02879
1.04145
1.02801
1.04155
1.0269
1.0414
1.02573
1.04083
1.02474
1.04006
1.02362
1.03988
1.0222
1.03946
1.02069
1.03931
1.01891
1.03886
1.01757
1.03873
1.0163
1.03817
1.01505
1.0383
1.01263
1.03917
1.00947
1.04026
1.0059
1.04184
1.0012
1.05918
0.93639
1.46267
1.05347
1.0313
1.05095
1.03454
1.04798
1.0337
1.04527
1.03217
1.04631
1.03338
1.04664
1.03371
1.04541
1.03388
1.04346
1.03457
1.04283
1.03476
1.04226
1.03543
1.04179
1.03504
1.04154
1.03493
1.04158
1.0346
1.04131
1.03443
1.04136
1.03397
1.04115
1.03351
1.04104
1.0329
1.04114
1.03214
1.04145
1.03159
1.04137
1.03129
1.04108
1.03061
1.04127
1.03013
1.04131
1.02946
1.04148
1.02884
1.04158
1.02807
1.04148
1.02728
1.04152
1.02613
1.04136
1.02494
1.04096
1.02377
1.04039
1.02246
1.04009
1.02108
1.03988
1.01992
1.03984
1.01807
1.03971
1.01637
1.03895
1.01471
1.03883
1.01259
1.03939
1.00905
1.04005
1.00572
1.04175
1.00229
1.05777
0.937405
1.46273
1.03162
1.04897
1.03373
1.0443
1.032
1.03864
1.03279
1.03938
1.0343
1.04036
1.03532
1.04122
1.0359
1.04148
1.03632
1.04097
1.03607
1.04101
1.03578
1.04116
1.03558
1.04118
1.0353
1.04101
1.03488
1.04067
1.03471
1.04045
1.03427
1.04034
1.03378
1.04051
1.03338
1.04074
1.03292
1.04058
1.03238
1.0407
1.03192
1.04068
1.03135
1.04091
1.03098
1.0408
1.0302
1.041
1.02962
1.04121
1.02888
1.04138
1.02808
1.04145
1.02695
1.04131
1.02577
1.0407
1.02479
1.03991
1.0237
1.03967
1.02227
1.03914
1.02075
1.03911
1.01899
1.03864
1.01765
1.03853
1.01632
1.03798
1.01509
1.03809
1.01275
1.03895
1.00951
1.0401
1.00584
1.04172
1.00239
1.05616
0.939497
1.45881
1.05287
1.0319
1.05043
1.0347
1.04766
1.03363
1.04506
1.03213
1.04615
1.03363
1.04638
1.03454
1.04474
1.03382
1.043
1.03474
1.04277
1.03553
1.04199
1.03558
1.04185
1.03559
1.04167
1.03517
1.04143
1.03502
1.0414
1.03478
1.04134
1.03449
1.04122
1.03405
1.04101
1.03351
1.04099
1.03295
1.04112
1.03222
1.04128
1.03164
1.04127
1.0313
1.041
1.03068
1.04121
1.03016
1.04122
1.02953
1.04139
1.02879
1.04151
1.02809
1.04138
1.02728
1.04142
1.02613
1.04121
1.02493
1.04074
1.02382
1.04016
1.02259
1.03988
1.02109
1.03965
1.0199
1.03951
1.01808
1.03936
1.01648
1.0387
1.01483
1.03854
1.01265
1.03909
1.00903
1.04002
1.00565
1.0417
1.00329
1.05499
0.93982
1.45715
1.03221
1.04846
1.03424
1.04397
1.03237
1.03842
1.03297
1.03926
1.03456
1.04032
1.03577
1.04145
1.03629
1.04109
1.03641
1.04103
1.03681
1.04106
1.03613
1.04146
1.03603
1.0411
1.03571
1.0408
1.03555
1.04079
1.03514
1.0405
1.03472
1.04037
1.03437
1.04025
1.03384
1.04054
1.03341
1.04065
1.033
1.04058
1.03249
1.04062
1.032
1.04063
1.03143
1.04088
1.031
1.04077
1.03026
1.04098
1.02966
1.04117
1.02896
1.04127
1.02808
1.04129
1.02701
1.04114
1.0258
1.04054
1.02481
1.03981
1.02374
1.03948
1.0223
1.03892
1.02086
1.03887
1.01899
1.03848
1.01776
1.03821
1.01638
1.03779
1.01519
1.03787
1.01281
1.0387
1.00953
1.03998
1.00571
1.04175
1.00295
1.05426
0.943573
1.45451
1.05221
1.03265
1.04988
1.03486
1.0472
1.03357
1.04487
1.03209
1.04598
1.03386
1.04626
1.03486
1.0448
1.03481
1.04369
1.03556
1.04282
1.03571
1.04191
1.03606
1.04164
1.03604
1.04149
1.03581
1.04146
1.03545
1.04126
1.03518
1.04138
1.03481
1.04117
1.03453
1.04108
1.03413
1.04095
1.03355
1.04094
1.03291
1.04104
1.03222
1.04125
1.03172
1.04121
1.03132
1.04096
1.03072
1.04114
1.03016
1.04113
1.02958
1.04131
1.02887
1.04141
1.02816
1.04132
1.02728
1.04133
1.02611
1.04104
1.02497
1.04052
1.02387
1.03991
1.02263
1.03964
1.02112
1.03944
1.01996
1.03929
1.01821
1.03917
1.01653
1.03839
1.01491
1.03826
1.01265
1.0388
1.00896
1.03997
1.00561
1.04167
1.00336
1.05466
0.938528
1.45376
1.03295
1.04812
1.03474
1.04364
1.03302
1.03823
1.03311
1.03913
1.0348