/*--------------------------------*- C++ -*----------------------------------*\
| =========                 |                                                 |
| \\      /  F ield         | OpenFOAM: The Open Source CFD Toolbox           |
|  \\    /   O peration     | Version:  2206                                  |
|   \\  /    A nd           | Website:  www.openfoam.com                      |
|    \\/     M anipulation  |                                                 |
\*---------------------------------------------------------------------------*/
FoamFile
{
    version     2.0;
    format      ascii;
    arch        "LSB;label=32;scalar=64";
    class       volScalarField;
    location    "200";
    object      pPrime2Mean;
}
// * * * * * * * * * * * * * * * * * * * * * * * * * * * * * * * * * * * * * //

dimensions      [2 -2 -4 0 0 0 0];

internalField   nonuniform List<scalar> 
93840
(
0.0716846
0.00715728
0.108953
0.00526691
0.00839819
0.112986
0.00635101
0.00214321
0.00435937
0.0661341
0.000283713
0.00416468
0.00247572
0.00479559
0.0652941
0.000100566
0.00415129
0.0033154
0.0039549
0.00415489
0.0838462
0.000196695
0.00246996
0.00323792
0.00540803
0.00295117
0.00994431
0.111584
0.000117019
0.00294127
0.00254049
0.00179424
0.00388144
0.00475061
0.0104895
0.15143
0.000181243
0.00173313
0.00280257
0.00171329
0.00160959
0.00654946
0.00193935
0.0109136
0.15116
0.000161211
0.00116936
0.0019578
0.0019792
0.00329724
0.00278169
0.00437964
0.00243697
0.0104189
0.189551
0.000157165
0.000799862
0.0018296
0.00137656
0.00182968
0.00393032
0.00316838
0.00234469
0.00277674
0.0119841
0.166182
0.000152699
0.00102042
0.00158328
0.00139905
0.00273261
0.00209603
0.00373084
0.0018559
0.00187277
0.00360374
0.0116669
0.185449
0.000137539
0.000706242
0.00181708
0.00123691
0.00137685
0.00334579
0.00167951
0.00186546
0.00154381
0.0021278
0.00393479
0.0120126
0.174568
0.000171836
0.00085314
0.00172674
0.00139581
0.00193959
0.00150251
0.00289017
0.00159102
0.00133876
0.0020186
0.0015922
0.00283425
0.01171
0.194011
0.000114303
0.000596518
0.00187043
0.00136994
0.00120367
0.00295706
0.00101618
0.00226343
0.00117805
0.00160963
0.00189195
0.00203974
0.00377605
0.0120476
0.178995
0.000161563
0.000729867
0.00175232
0.00138291
0.00160351
0.00117719
0.00222489
0.00111473
0.00138188
0.00141934
0.00125778
0.00193752
0.00176122
0.00317236
0.0116786
0.199844
0.000116524
0.000538663
0.0019626
0.00143649
0.00106806
0.00269958
0.000665783
0.00210206
0.000889988
0.00168449
0.00130347
0.00167614
0.00206259
0.0019835
0.0035014
0.0119784
0.183871
0.000181977
0.000639816
0.00183356
0.00139575
0.00132476
0.00105373
0.00177513
0.000741586
0.00140036
0.00101052
0.00118173
0.00127114
0.0012748
0.00192234
0.00180026
0.00321131
0.011556
0.204703
0.000138319
0.000538675
0.00204272
0.00148583
0.000959339
0.00249408
0.000442774
0.00192049
0.000638036
0.00177741
0.000871514
0.00163439
0.0012656
0.00173246
0.00211284
0.00197686
0.00337968
0.0118637
0.187562
0.000208366
0.000578535
0.00189435
0.00143091
0.00116924
0.00099431
0.00146748
0.000529417
0.00126833
0.000690068
0.00121842
0.000952757
0.00112268
0.00124654
0.00131334
0.00196587
0.00172626
0.00325169
0.0113912
0.207444
0.000195879
0.000610098
0.00210566
0.00151708
0.00089782
0.00233461
0.000337957
0.00176744
0.000493618
0.00179487
0.000642094
0.00157098
0.000892483
0.00156821
0.00135198
0.00170448
0.00203809
0.00184407
0.00331776
0.0117296
0.190798
0.000242083
0.000546019
0.00181172
0.00147847
0.000975952
0.000947997
0.00122584
0.000424786
0.00107277
0.000513926
0.00105168
0.000668568
0.00108166
0.000875426
0.00110234
0.00117065
0.00124987
0.00198014
0.00161341
0.00327017
0.0112445
0.208312
0.000291265
0.000692125
0.00210454
0.00147137
0.000848465
0.00216867
0.000323545
0.0016454
0.000390704
0.00181669
0.000466583
0.0016016
0.000658063
0.00152891
0.000957994
0.00146419
0.00120557
0.0016369
0.00205924
0.00169887
0.00326588
0.0116218
0.194473
0.000251494
0.000562021
0.00176887
0.00152334
0.000865755
0.000928589
0.00104445
0.000388772
0.000935925
0.00042355
0.000884158
0.000462533
0.000911463
0.000634736
0.00103849
0.000804332
0.00112204
0.00116973
0.00119745
0.00199026
0.0015162
0.00327558
0.0110734
0.208061
0.000327638
0.000806255
0.00211298
0.0014565
0.000841444
0.00204592
0.000319956
0.00148691
0.000275763
0.00164465
0.000316235
0.00138618
0.000484762
0.00149398
0.000630834
0.00115723
0.000906854
0.00131381
0.00111673
0.00150499
0.0020377
0.00164438
0.00320598
0.0110983
0.211829
0.000252327
0.000623671
0.00171129
0.00157927
0.00078627
0.000921432
0.000932955
0.000427199
0.000820475
0.000372774
0.000718159
0.000361074
0.000722441
0.000472818
0.000850489
0.000585603
0.00101101
0.000794309
0.00117345
0.00114288
0.00121904
0.00203997
0.00145481
0.00327642
0.00999993
0.219918
0.000335236
0.000853495
0.0021871
0.00143021
0.000843287
0.00194252
0.000307885
0.00131258
0.000226901
0.00140014
0.000271263
0.0011714
0.000336877
0.00134782
0.000471856
0.00124391
0.000655143
0.00118729
0.000815656
0.00119935
0.00109001
0.00143835
0.00204102
0.00159346
0.00321968
0.0122606
0.209918
0.000261547
0.000684181
0.00162693
0.00162274
0.00071607
0.000927519
0.000876405
0.00046896
0.000760922
0.00036919
0.000763582
0.000339658
0.000678611
0.000363833
0.000694645
0.000487704
0.000842554
0.000597123
0.000974883
0.000800444
0.00123443
0.00113684
0.00119118
0.00205753
0.00135172
0.00360662
0.0112754
0.211673
0.000324499
0.000830625
0.00224102
0.0012781
0.000834778
0.00180065
0.000320075
0.00114923
0.000194463
0.00122065
0.00020291
0.00106303
0.000263448
0.0011075
0.000336389
0.00112686
0.000443719
0.00112285
0.000629105
0.00120284
0.000794188
0.00120399
0.00113479
0.00140132
0.00205696
0.00149883
0.00339922
0.0112516
0.205518
0.000278428
0.000712403
0.00150244
0.00163156
0.000675866
0.000944855
0.000806739
0.000508144
0.000704071
0.000416096
0.000682214
0.000361388
0.000646125
0.000334862
0.000682262
0.000380369
0.000701004
0.000481817
0.000860366
0.000603314
0.000953648
0.000814373
0.00116635
0.00120184
0.00120888
0.00208472
0.00133152
0.00328663
0.0104389
0.209669
0.000306008
0.000792235
0.00229486
0.00117908
0.000840892
0.00168409
0.000356225
0.000977988
0.000231767
0.000984803
0.000176346
0.000906171
0.000233505
0.000969337
0.000249223
0.00101914
0.000301296
0.00106799
0.000400048
0.000928169
0.000573233
0.00118261
0.000780287
0.00124187
0.00116652
0.00133018
0.00204185
0.00150726
0.0032325
0.0105817
0.204435
0.000314767
0.000715585
0.00136774
0.00162892
0.000632702
0.000960069
0.000722753
0.000535819
0.000659962
0.000431419
0.000680602
0.000397842
0.000646922
0.000333654
0.000624898
0.000310309
0.000663946
0.000393236
0.00068815
0.000453521
0.00084744
0.000603078
0.000939601
0.000842977
0.00113552
0.0012344
0.00126265
0.00205057
0.00130894
0.00331641
0.00982355
0.208575
0.000301622
0.000795525
0.00236677
0.00107964
0.000843675
0.00152988
0.00039717
0.000831857
0.00028197
0.000756148
0.000216587
0.000738117
0.000217518
0.000844239
0.000227465
0.000915442
0.00023244
0.000931906
0.000283285
0.000988441
0.00039223
0.00101922
0.0005648
0.00111743
0.000773754
0.00119918
0.00119672
0.00129866
0.00201562
0.00152853
0.00325343
0.0100078
0.204307
0.000330495
0.000804
0.00122522
0.00164385
0.000614225
0.000979689
0.000649194
0.000558588
0.000601984
0.000441624
0.00060562
0.000376776
0.000604468
0.000342503
0.000583143
0.000291902
0.000559642
0.000289912
0.000627389
0.00037015
0.000677528
0.000441458
0.000827415
0.000602331
0.000901409
0.000841256
0.0011103
0.00125455
0.00124417
0.00205188
0.00129377
0.00320954
0.00930033
0.208726
0.000298901
0.000768567
0.00240112
0.00099696
0.000845123
0.00140341
0.000438235
0.000709902
0.000319025
0.000656926
0.000244661
0.000675266
0.000217435
0.000701044
0.000225982
0.000766753
0.00021879
0.000820992
0.000250335
0.000846006
0.000278597
0.000935952
0.000375872
0.000982333
0.000548753
0.00112598
0.000776456
0.00120443
0.00118032
0.00133431
0.00200639
0.00149965
0.0032105
0.0114967
0.20466
0.000331798
0.00087858
0.00109454
0.00164326
0.000591481
0.000978826
0.000595149
0.000586444
0.000532146
0.000449542
0.000568827
0.000384002
0.000522484
0.000322373
0.000531208
0.000301087
0.000541118
0.00026444
0.000535494
0.000273591
0.000597118
0.000361281
0.000664427
0.000424257
0.000809834
0.000568531
0.000871628
0.00083983
0.0010981
0.00126982
0.00122841
0.00205444
0.00134803
0.00343717
0.0108157
0.208512
0.000284846
0.000696504
0.00242579
0.000909154
0.00085755
0.00129479
0.00046685
0.00061361
0.000371541
0.000583079
0.000308543
0.000557096
0.0002397
0.000594672
0.00019815
0.000590183
0.000205952
0.000646211
0.000212385
0.00070863
0.000241534
0.000748969
0.000292358
0.000829818
0.000374523
0.000959159
0.000504246
0.00111799
0.000771681
0.00120088
0.00116398
0.0013516
0.00199625
0.00163148
0.00335549
0.0105637
0.204318
0.000338696
0.000963166
0.000985648
0.00166179
0.000562275
0.000972537
0.000563825
0.000613644
0.000482278
0.00053923
0.000495469
0.000413218
0.000474216
0.00033714
0.00045282
0.000278198
0.000471215
0.000243672
0.000540222
0.00024578
0.000531629
0.000254042
0.000604473
0.000317718
0.00070602
0.000398654
0.000799488
0.000568093
0.000932242
0.000814726
0.00108576
0.00127208
0.0012237
0.00204802
0.00140082
0.00327739
0.010058
0.2082
0.000314298
0.000648746
0.00243218
0.0008016
0.000889797
0.00118387
0.000484338
0.000537983
0.000398516
0.00052682
0.00032746
0.000465683
0.000284997
0.0005201
0.000229418
0.000505797
0.000179131
0.000535859
0.000195363
0.000539729
0.000208821
0.000672327
0.000232438
0.000730529
0.000286591
0.000801644
0.000359166
0.000959936
0.000514341
0.00109333
0.000735327
0.00122223
0.00117285
0.00136355
0.00197163
0.00152663
0.00323029
0.00982915
0.204622
0.000334533
0.00107023
0.000898184
0.00168773
0.000540715
0.000984288
0.000550293
0.000642816
0.000462169
0.000568829
0.000475299
0.000436346
0.000419781
0.000364319
0.000433391
0.000311269
0.000418565
0.000257619
0.000436043
0.000223622
0.000499541
0.000203174
0.000521317
0.000240286
0.000609516
0.000307439
0.000701424
0.000398971
0.00079584
0.000572329
0.000927801
0.000838465
0.00109021
0.00129096
0.00124307
0.00204147
0.0013143
0.00326789
0.0114633
0.208304
0.000332138
0.000602886
0.00243522
0.000717133
0.000932187
0.0010799
0.000494934
0.000479167
0.000416502
0.000487483
0.000341318
0.000429051
0.000314829
0.000445019
0.000256673
0.000428379
0.000207657
0.000457986
0.000166075
0.000468905
0.000177576
0.000531063
0.000182421
0.000647883
0.000216872
0.000703182
0.000276937
0.000789259
0.000358095
0.000945697
0.000498722
0.00110044
0.000727705
0.00121902
0.00119099
0.0013824
0.00196878
0.00151579
0.00360179
0.011192
0.204418
0.000331954
0.00116148
0.000801138
0.0016902
0.000510157
0.000994115
0.000546159
0.000662182
0.000431337
0.000547785
0.000420028
0.000438921
0.000392144
0.000408683
0.000402516
0.000325403
0.000402931
0.000278984
0.000393579
0.000229355
0.00041601
0.000202573
0.000497035
0.000194286
0.000509799
0.000228823
0.000600743
0.00028508
0.000693671
0.000392254
0.00080058
0.000571995
0.000930323
0.000839013
0.00111537
0.00129416
0.0012509
0.00203591
0.00149763
0.00350944
0.0104742
0.208124
0.00035363
0.000557637
0.0024334
0.000638735
0.00097474
0.00101338
0.000503433
0.000434861
0.000450075
0.000422319
0.000372936
0.000404724
0.000326043
0.000389889
0.000254851
0.000410476
0.000218281
0.00039591
0.00018424
0.000420913
0.000144475
0.000451523
0.000165158
0.000506574
0.000171408
0.000599975
0.000212918
0.000682764
0.000277663
0.000770565
0.000357451
0.000931288
0.000494633
0.00108506
0.000734291
0.00123045
0.00120331
0.00140713
0.00196297
0.00159835
0.00338167
0.0102828
0.203477
0.000310376
0.00122724
0.000717434
0.00167886
0.000478325
0.00102232
0.000548302
0.000664611
0.000401648
0.000581587
0.000373949
0.000486482
0.000361339
0.000389908
0.000374053
0.00035004
0.000365857
0.000293726
0.000368119
0.000256349
0.000377662
0.000216424
0.000402012
0.000191757
0.000484136
0.000181753
0.000513898
0.000222741
0.000597324
0.000273561
0.000693815
0.000394727
0.00079343
0.00056285
0.000936738
0.000839121
0.00112137
0.00128493
0.00125496
0.00201952
0.0013641
0.00329755
0.00973552
0.20696
0.000373497
0.000516116
0.00241299
0.000545002
0.00100694
0.000945369
0.000505815
0.000408215
0.000500405
0.000374292
0.000407132
0.000361372
0.00033679
0.000355221
0.000287449
0.000382099
0.000244059
0.000365497
0.000199516
0.000348541
0.000180522
0.000369606
0.000139802
0.000432873
0.000159656
0.000483472
0.000165208
0.000557096
0.000214525
0.00064986
0.000279794
0.000745598
0.000357935
0.000912413
0.000490859
0.00108006
0.000733876
0.00125891
0.00120169
0.00144003
0.00196843
0.00152478
0.00321839
0.00951559
0.20276
0.00028991
0.00127901
0.000638616
0.00165957
0.000460857
0.0010647
0.000543455
0.000656536
0.000391071
0.000586085
0.000355726
0.00053265
0.000314634
0.00043856
0.000340611
0.000359594
0.000344576
0.000316024
0.000340476
0.000274249
0.000348255
0.000237064
0.000360624
0.000206858
0.000391945
0.000181392
0.000464233
0.000184976
0.000518556
0.000220053
0.000605737
0.00026111
0.000697107
0.000398674
0.000792841
0.00058388
0.000938675
0.00083647
0.00113088
0.00127438
0.00126475
0.00202058
0.00131799
0.00327105
0.0108223
0.20626
0.000397145
0.000480598
0.00235518
0.000475561
0.00102387
0.000874082
0.000515559
0.000387829
0.00054834
0.000325684
0.000455182
0.00031653
0.000342522
0.000349387
0.000283129
0.000335066
0.00030739
0.000331598
0.000229754
0.000324531
0.000188417
0.000329056
0.000169466
0.000362678
0.000136531
0.000412398
0.000159997
0.000460014
0.000167895
0.000512646
0.000212736
0.000630506
0.000263053
0.000736267
0.000364429
0.000881933
0.000499396
0.00107009
0.000731397
0.00126242
0.00120691
0.00145493
0.00196949
0.00152368
0.0035885
0.0106251
0.201907
0.000300569
0.00131608
0.000583173
0.00164232
0.000455835
0.00110316
0.000519035
0.000653605
0.000391812
0.000550136
0.000324639
0.000517201
0.000294347
0.000469545
0.000273837
0.000381066
0.000316286
0.000306783
0.00033645
0.000269093
0.000333666
0.000263848
0.000335631
0.000222885
0.000338723
0.000201349
0.000390178
0.000169882
0.000449674
0.000173423
0.000500775
0.000220109
0.000613981
0.000282457
0.000695607
0.000400824
0.000777693
0.000584615
0.000957218
0.000834833
0.00114956
0.00127284
0.00127777
0.00202012
0.00149392
0.00350516
0.00983007
0.205453
0.000419006
0.000455493
0.00230471
0.000422257
0.00102726
0.000812707
0.000532429
0.000362691
0.000571377
0.000283297
0.000480418
0.000287256
0.000366572
0.000284375
0.000332756
0.000314234
0.000265313
0.000306668
0.00025191
0.000311867
0.000225508
0.000303583
0.000189569
0.000317314
0.000173684
0.00035619
0.000143032
0.000376443
0.000148328
0.000438235
0.000167893
0.000534164
0.000217373
0.000617621
0.000268812
0.000729228
0.000364609
0.00087464
0.000494924
0.00107281
0.00073228
0.00126862
0.00119124
0.00141824
0.00196089
0.00158123
0.00340891
0.00976351
0.201338
0.000288272
0.00132546
0.000528167
0.00161132
0.000456634
0.00112634
0.000486555
0.00066601
0.000408756
0.000528862
0.000313207
0.000498652
0.000268681
0.000451081
0.000272042
0.000411367
0.000262822
0.000355748
0.000284418
0.000283875
0.000327075
0.000242809
0.000319027
0.000256024
0.000310129
0.000221365
0.000326376
0.000198729
0.000387215
0.000166515
0.00043181
0.000157123
0.000495204
0.000217618
0.00060644
0.000286077
0.000694178
0.000407184
0.000786239
0.00058109
0.000962809
0.000834206
0.00116326
0.00124598
0.00130895
0.00201737
0.00141469
0.00335198
0.00909507
0.205009
0.000441279
0.000459005
0.00222548
0.000368463
0.00101917
0.000767246
0.000550443
0.000341219
0.000566029
0.00027372
0.000507334
0.000272067
0.00038286
0.000260839
0.000345205
0.000255918
0.000283669
0.000299485
0.000251933
0.000290471
0.00022824
0.000288747
0.000207479
0.000285043
0.000179617
0.000309445
0.000167171
0.000340652
0.000144507
0.000359471
0.000149821
0.000433607
0.000153358
0.000511939
0.000220682
0.000603998
0.000273819
0.000723638
0.000367315
0.000857509
0.000493222
0.00108059
0.000738788
0.00127122
0.00115978
0.00142476
0.00197076
0.00152955
0.00340012
0.0108061
0.2007
0.000288873
0.00131318
0.000487982
0.00157335
0.000455668
0.0011397
0.000455598
0.000678908
0.000430759
0.000530961
0.000318401
0.000463915
0.000283806
0.000446696
0.000255817
0.000403743
0.000251963
0.00036925
0.000241834
0.000335495
0.000283143
0.00026412
0.000301856
0.000237884
0.000295643
0.000241146
0.000311626
0.000211998
0.000320893
0.000185325
0.000383256
0.000163965
0.000416096
0.000157971
0.000493148
0.000210375
0.000600307
0.000284015
0.000691235
0.000415256
0.000784888
0.000553175
0.000966784
0.000837503
0.00116455
0.00121761
0.00130793
0.00201665
0.00139048
0.00369437
0.0101161
0.204218
0.000472072
0.00047243
0.00212037
0.00033605
0.00100279
0.000730522
0.000561589
0.000324992
0.000549246
0.000271086
0.000510437
0.00027509
0.000427918
0.00023537
0.000379185
0.000245432
0.000316299
0.000261922
0.000277207
0.000272967
0.000233099
0.000267569
0.000218211
0.000266651
0.000197313
0.00027895
0.000174102
0.000301746
0.000166066
0.000324165
0.000149054
0.000351298
0.000150318
0.000431543
0.000161862
0.000498515
0.000223308
0.000592865
0.00028307
0.00071618
0.000371133
0.000863509
0.000465354
0.00107668
0.00072323
0.00125784
0.00113505
0.00143611
0.00196688
0.00167349
0.00356243
0.00988424
0.199856
0.000280133
0.00128928
0.000474382
0.00153135
0.000453371
0.00114722
0.000428668
0.000692092
0.00044012
0.000533178
0.00031578
0.000456874
0.000285805
0.000418082
0.0002409
0.00039172
0.000236234
0.000360383
0.000243071
0.000345292
0.000231228
0.000301672
0.000269612
0.000245356
0.000291541
0.000231145
0.000292263
0.000231635
0.000299041
0.000198917
0.000320725
0.0001794
0.00037683
0.000160851
0.000418208
0.000163044
0.000492794
0.000212079
0.000600495
0.000288076
0.000694114
0.000416959
0.000793499
0.000574877
0.000965426
0.000788677
0.00117939
0.00122753
0.0013127
0.00201821
0.00145517
0.00346904
0.00929641
0.203478
0.0005005
0.000461164
0.00202798
0.000310769
0.000980213
0.000696994
0.000567886
0.00031352
0.000537679
0.000266878
0.00051205
0.000241371
0.000431631
0.000233315
0.000370738
0.000221668
0.000352926
0.000239322
0.00030138
0.000246058
0.000264531
0.000252682
0.000231503
0.000252868
0.000198977
0.000256015
0.00019017
0.000270577
0.000168755
0.000286168
0.000166908
0.000313279
0.000151289
0.000350987
0.000149678
0.000420817
0.000159409
0.000490612
0.000218096
0.000589168
0.00028474
0.00069967
0.000369882
0.00085843
0.000474271
0.00108937
0.00068703
0.00126663
0.00113849
0.00143951
0.00197163
0.00156551
0.00339083
0.00916587
0.198984
0.000272632
0.00123696
0.000468715
0.00141792
0.000457063
0.00114681
0.000399546
0.000700879
0.000442243
0.00054833
0.000301915
0.000480499
0.000273438
0.000426373
0.000231354
0.000400903
0.000227792
0.000368713
0.000227802
0.000335761
0.000225894
0.000316691
0.000235925
0.000277281
0.000258151
0.00024375
0.000268215
0.000221043
0.000282361
0.000220567
0.00029555
0.000196296
0.00031438
0.000176002
0.000370456
0.000161778
0.000419344
0.000163449
0.000491208
0.000205119
0.000597445
0.000292426
0.000689939
0.000415136
0.000797662
0.000565318
0.000976728
0.000813966
0.00118435
0.00123052
0.00132353
0.00202339
0.00136853
0.00336954
0.00861631
0.20231
0.000517662
0.0004516
0.00191501
0.00030412
0.000954775
0.000662523
0.000574658
0.000309523
0.000524024
0.000265071
0.000512006
0.000214701
0.000421606
0.000206362
0.000368364
0.000216621
0.00034145
0.000207599
0.000336714
0.000223909
0.000281674
0.000225303
0.000254965
0.000241324
0.000241424
0.000242131
0.000196847
0.000253742
0.000188739
0.000258402
0.000172534
0.000276489
0.000164868
0.000308408
0.000154612
0.000355923
0.000152727
0.000415316
0.000164983
0.000484032
0.000220768
0.000580218
0.000287473
0.000700894
0.000379593
0.000851381
0.00047287
0.00107894
0.000690331
0.00127072
0.0011408
0.0014488
0.00197047
0.00150243
0.00329981
0.00857058
0.197683
0.000256513
0.00119593
0.000475525
0.00139101
0.00046228
0.00114203
0.000371898
0.000713841
0.000445861
0.000561531
0.000286493
0.000487505
0.000272839
0.000425961
0.000246389
0.00039845
0.000207684
0.000382922
0.000211911
0.000356629
0.00021354
0.000312079
0.000219916
0.000300018
0.000232366
0.000242597
0.000248887
0.00023454
0.000261441
0.000218025
0.000280112
0.000207323
0.000286336
0.000189717
0.000310364
0.000175125
0.00037065
0.000161088
0.000420557
0.00016509
0.000497462
0.00020456
0.000596947
0.000297141
0.000692609
0.000415441
0.00080267
0.00056682
0.000986654
0.000820932
0.00118458
0.00122885
0.0013231
0.00201133
0.00136394
0.00330243
0.00804526
0.201264
0.000528693
0.000459159
0.00184194
0.000298782
0.000924009
0.000627728
0.000582243
0.000307571
0.000510793
0.000288807
0.000494533
0.000217711
0.000460302
0.000195051
0.000370831
0.000209463
0.000349957
0.000198321
0.000331464
0.000196638
0.000322041
0.000209106
0.00027965
0.000213737
0.000256501
0.000235903
0.000240044
0.000235497
0.000194369
0.000247707
0.000185769
0.000253381
0.000175592
0.00027627
0.000167121
0.000305794
0.000160692
0.000350478
0.000154671
0.000407827
0.000166334
0.000474366
0.000220149
0.000578554
0.000291139
0.000699992
0.000379356
0.000846105
0.000483241
0.0010364
0.000699524
0.00127427
0.0011527
0.00145385
0.00197667
0.00147854
0.00331644
0.00930934
0.19658
0.000250023
0.00114433
0.000488881
0.00136195
0.000465914
0.00113487
0.000347989
0.000733892
0.000455595
0.000565717
0.000275235
0.000511887
0.000251549
0.000443131
0.000242715
0.000408404
0.000221942
0.000382825
0.000197855
0.000354581
0.000201559
0.000334853
0.000203302
0.000301578
0.000212181
0.000276321
0.000225114
0.000237695
0.000239299
0.000227173
0.000254004
0.000209372
0.000276041
0.000203688
0.000278797
0.000187632
0.000310497
0.000175161
0.000369705
0.000167913
0.000421039
0.00016768
0.000499062
0.000203994
0.00059545
0.000303793
0.00069635
0.000423364
0.000799886
0.000567243
0.00101937
0.000829019
0.00117576
0.00123229
0.0013242
0.00201618
0.00136323
0.00356741
0.00882493
0.199909
0.000539457
0.000463658
0.00172537
0.000291877
0.000896605
0.000593525
0.000587378
0.000307407
0.00050558
0.000302254
0.000482877
0.000226792
0.00045515
0.000197827
0.000415102
0.000185689
0.000373733
0.000190135
0.000346012
0.000183166
0.000319842
0.000189201
0.00030528
0.000195157
0.000275279
0.000213457
0.000256825
0.000232651
0.000231279
0.000234179
0.000193482
0.00024671
0.000183039
0.000249885
0.000175133
0.000272604
0.00016746
0.000301273
0.00016501
0.000346903
0.000158396
0.000405559
0.000167057
0.000474166
0.000219662
0.000579693
0.000293351
0.000699405
0.000384654
0.000842148
0.000494066
0.00103401
0.000714773
0.00127814
0.00116493
0.00146108
0.00197801
0.00159167
0.0035204
0.00858197
0.195277
0.000245279
0.00107746
0.00049116
0.00133721
0.000471408
0.00112718
0.000327484
0.000752743
0.000471253
0.000570656
0.000276919
0.000517511
0.000246507
0.000472101
0.000220047
0.00041859
0.000219831
0.000389398
0.000204485
0.000362542
0.000193239
0.000348591
0.000190589
0.000316626
0.000200827
0.000295925
0.000212995
0.000265121
0.000219005
0.000235364
0.000236514
0.000219799
0.000249723
0.000204108
0.00027218
0.000197749
0.000272783
0.000184855
0.00030982
0.000176154
0.000358627
0.000171715
0.000421035
0.000166115
0.0005005
0.000206362
0.000597057
0.000306157
0.000701659
0.000428068
0.000797121
0.000572581
0.00101118
0.000830633
0.00117147
0.00123871
0.0013315
0.00200896
0.00141964
0.00349793
0.00817369
0.198484
0.000547548
0.000458735
0.00168535
0.000290038
0.000872012
0.000565091
0.000586873
0.000312581
0.000511945
0.000310708
0.000466735
0.00025325
0.000442388
0.000195477
0.00040174
0.000186833
0.000384883
0.000188074
0.00036179
0.000176436
0.000344438
0.000172824
0.000311138
0.000181069
0.000285747
0.000185843
0.00026684
0.000207668
0.000254525
0.000226498
0.000227784
0.0002341
0.000194151
0.000242743
0.000181427
0.000245667
0.000174533
0.000271442
0.000166035
0.000299978
0.000169678
0.000346518
0.000160629
0.000404727
0.000172657
0.000477516
0.000220053
0.0005783
0.000293797
0.000688999
0.000390025
0.000830727
0.000503523
0.00103434
0.00072578
0.00127386
0.00117233
0.00146252
0.00197338
0.00153572
0.00345099
0.00796237
0.194062
0.000236876
0.00101746
0.000492348
0.00131674
0.000464862
0.00111811
0.000311307
0.000763127
0.000480971
0.000573379
0.00028028
0.000525128
0.00024178
0.000476539
0.000232733
0.000448159
0.00020583
0.000403211
0.000209874
0.000377669
0.000195228
0.000352608
0.000186915
0.000336938
0.000181853
0.000312944
0.000195873
0.000287927
0.000210609
0.000258859
0.000219401
0.000230194
0.000232728
0.000213963
0.000246151
0.000200221
0.000268538
0.000194291
0.000268399
0.000178282
0.000310313
0.000179156
0.000357108
0.000174583
0.000419948
0.000167772
0.000505677
0.000209261
0.00059802
0.00030572
0.000688258
0.000432173
0.000796486
0.000577704
0.000999647
0.000835951
0.0011608
0.00124112
0.00132945
0.00201653
0.00137815
0.00348302
0.00889619
0.197119
0.000552946
0.000461233
0.00164637
0.000288792
0.000848843
0.000540926
0.00058266
0.000321022
0.000524875
0.000321971
0.000457773
0.000271715
0.000431735
0.000218046
0.000404473
0.000183152
0.000366425
0.000192488
0.000345193
0.000180805
0.000342136
0.000171621
0.00033053
0.000174654
0.000303991
0.000174806
0.000272528
0.000180788
0.000262753
0.00020691
0.00025127
0.000220842
0.000224369
0.000228694
0.000192276
0.000240243
0.000178707
0.000243215
0.000171078
0.000274873
0.000165614
0.00029769
0.000172328
0.000350438
0.000165607
0.000408906
0.000176039
0.000474761
0.000215384
0.000581046
0.000295113
0.000706718
0.000397922
0.000829983
0.000515691
0.00102787
0.00073536
0.00126537
0.00116888
0.00142487
0.00197762
0.00152125
0.00375373
0.00868905
0.192921
0.000227021
0.000984693
0.000508273
0.00129877
0.000451739
0.00110986
0.000298247
0.000764464
0.00048734
0.000572142
0.000284707
0.000522419
0.000246297
0.000474775
0.000223186
0.000444906
0.000216251
0.000410169
0.000199452
0.000386338
0.000200658
0.000366053
0.0001808
0.000342012
0.000184159
0.000336643
0.000179111
0.000308458
0.000191585
0.000281159
0.000206058
0.000256103
0.000217685
0.000227083
0.000228429
0.000209437
0.000244294
0.000195611
0.000262955
0.000193792
0.000266497
0.000175458
0.000308731
0.000179874
0.000355185
0.000176134
0.000422503
0.000170185
0.000503772
0.000210315
0.000604327
0.000304992
0.000687277
0.000434226
0.000791673
0.000586641
0.00099199
0.000839001
0.00115367
0.00122761
0.00137133
0.0020278
0.00146192
0.00371308
0.00815686
0.195687
0.000558187
0.00045617
0.00160422
0.000288139
0.00082775
0.000522851
0.000579343
0.000327279
0.00053686
0.000329884
0.000454015
0.000270406
0.000408877
0.000229179
0.000393871
0.000198229
0.000360354
0.000189441
0.000359506
0.000178006
0.00034245
0.000172033
0.000325707
0.000174392
0.000306331
0.00016999
0.000289476
0.000176757
0.000268702
0.000178673
0.000259184
0.000202532
0.000246678
0.000215517
0.000222858
0.000226803
0.000190302
0.000241369
0.000180292
0.000240527
0.000170856
0.000272332
0.000164272
0.000298854
0.000174815
0.000351146
0.000170934
0.000408003
0.000178386
0.000485297
0.000206869
0.000582432
0.000295847
0.000710077
0.00040423
0.000827601
0.000524223
0.0010259
0.000746821
0.00126133
0.00115718
0.00140511
0.00199028
0.00156738
0.00367389
0.00801426
0.191471
0.000220231
0.000954388
0.000518123
0.00128219
0.000441389
0.0011022
0.000287144
0.000763292
0.000489863
0.00056753
0.000289613
0.000531573
0.000252709
0.000464409
0.000232979
0.00042069
0.000216037
0.000425067
0.00019484
0.000390193
0.000201446
0.000374152
0.000193624
0.00035911
0.0001794
0.000339622
0.000177677
0.000315643
0.000178876
0.0003012
0.000188051
0.000278169
0.00020243
0.000251246
0.000211741
0.000226717
0.000222853
0.000204766
0.000240595
0.00019637
0.000256227
0.000191325
0.000266462
0.000175331
0.000307715
0.00018231
0.000353684
0.000178026
0.000414672
0.000172075
0.000504083
0.00019841
0.00060767
0.000303363
0.000689151
0.000434862
0.000792002
0.000597223
0.000987531
0.000843981
0.00115398
0.00120009
0.00136645
0.00203767
0.00139124
0.00362062
0.00751368
0.193843
0.000557137
0.000462952
0.00155847
0.000291814
0.000809161
0.000511659
0.000577616
0.000331869
0.000543055
0.000338598
0.000462273
0.000287767
0.000402175
0.000246389
0.000384876
0.000224924
0.000373774
0.000209379
0.000344962
0.000183992
0.0003564
0.000176885
0.000332425
0.000169531
0.000319263
0.000174183
0.000299319
0.000173507
0.000277173
0.00017453
0.000267732
0.000178412
0.000255748
0.000198404
0.000244107
0.000208343
0.000221489
0.000221998
0.00018726
0.000239377
0.000178458
0.000239719
0.000168359
0.000269181
0.000163062
0.000298119
0.000176099
0.00035362
0.000174672
0.000414444
0.000181332
0.000488992
0.00021563
0.000583928
0.000297693
0.000707853
0.000411408
0.000824919
0.000538705
0.0010229
0.000757231
0.00126085
0.0011198
0.00140134
0.00198741
0.00151499
0.00355259
0.00742527
0.189748
0.000214865
0.000926785
0.000536164
0.00126126
0.000437984
0.00109384
0.000277023
0.000760992
0.000490092
0.000565474
0.00030547
0.00050959
0.000263373
0.000450944
0.000240947
0.000435266
0.000224588
0.000377761
0.000195497
0.000402751
0.000191352
0.000363732
0.000194976
0.000363497
0.000192768
0.000351237
0.000177188
0.000328928
0.000178015
0.000313676
0.000175122
0.000295667
0.000183804
0.000273038
0.000199756
0.000248394
0.000206576
0.000221386
0.000220859
0.000199568
0.000238094
0.00019096
0.000253645
0.000187245
0.00026665
0.000177754
0.000306132
0.000183304
0.000355746
0.00017988
0.000421264
0.000174858
0.000506347
0.000196887
0.000609292
0.000296862
0.000689852
0.000437166
0.000795061
0.00060848
0.000986736
0.0008484
0.0011544
0.0011815
0.00136355
0.00204298
0.00137186
0.00351651
0.00697576
0.192145
0.000550612
0.000473121
0.00152629
0.000298338
0.000793734
0.000502975
0.000573784
0.000337061
0.000545525
0.000347745
0.000462201
0.000292613
0.000407653
0.000289242
0.000386829
0.000248558
0.000365669
0.000215765
0.000355253
0.000203651
0.000333463
0.00018275
0.000331137
0.000174467
0.000319712
0.000171051
0.000312609
0.000175716
0.000296065
0.000173265
0.000276906
0.00017264
0.000265649
0.000176126
0.00025266
0.000195852
0.00024175
0.000202568