/*--------------------------------*- C++ -*----------------------------------*\
| =========                 |                                                 |
| \\      /  F ield         | OpenFOAM: The Open Source CFD Toolbox           |
|  \\    /   O peration     | Version:  2206                                  |
|   \\  /    A nd           | Website:  www.openfoam.com                      |
|    \\/     M anipulation  |                                                 |
\*---------------------------------------------------------------------------*/
FoamFile
{
    version     2.0;
    format      ascii;
    arch        "LSB;label=32;scalar=64";
    class       volScalarField;
    location    "200";
    object      rho;
}
// * * * * * * * * * * * * * * * * * * * * * * * * * * * * * * * * * * * * * //

dimensions      [1 -3 0 0 0 0 0];

internalField   nonuniform List<scalar> 
93840
(
2.9883
0.429362
3.0648
1.43088
0.439132
2.92606
0.513598
1.12623
0.586399
2.44514
1.14581
0.905956
1.18449
0.705265
2.19136
0.966387
1.02279
0.901364
1.33123
0.782617
2.07919
1.06658
0.931571
1.10104
0.741978
1.18848
0.755437
2.11405
0.983009
1.03405
0.959064
1.14867
0.81666
1.2077
0.787652
2.12021
1.07076
0.943672
1.07326
0.992196
1.09759
0.860003
1.0978
0.771047
2.1318
0.999512
1.05262
0.945204
1.074
0.977697
1.06143
0.97079
1.07184
0.773569
2.13658
1.07396
0.962412
1.07975
0.994053
1.05286
0.98888
1.01316
0.971588
1.06189
0.767432
2.14393
0.998699
1.06336
0.95988
1.08442
0.989263
1.04398
0.975046
1.02781
0.983181
1.04712
0.769735
2.14369
1.06637
0.971798
1.088
1.00745
1.06164
0.995548
1.02886
0.997487
1.00988
0.967529
1.04543
0.76685
2.14654
0.989726
1.04831
0.968708
1.0895
0.997418
1.05108
0.989189
1.03844
0.975865
1.02078
0.978842
1.04012
0.769325
2.14615
1.06324
0.967771
1.08884
1.01174
1.06559
1.01228
1.0497
0.99873
1.02564
0.996395
1.00882
0.965711
1.03878
0.767837
2.14734
0.990598
1.05002
0.970454
1.08931
1.00204
1.06678
0.999719
1.04801
0.989964
1.03272
0.965972
1.01643
0.975905
1.03592
0.770096
2.14646
1.06071
0.971502
1.08328
1.01478
1.06781
1.02777
1.05134
1.00454
1.04223
0.999943
1.02078
0.988207
1.00912
0.965531
1.03564
0.769508
2.14688
0.987228
1.04213
0.96692
1.0845
1.00435
1.07381
0.999615
1.05851
0.993099
1.04284
0.987294
1.02941
0.966194
1.01338
0.972134
1.03415
0.771898
2.14577
1.06051
0.962566
1.08051
1.01399
1.06705
1.03425
1.05201
1.02005
1.04174
1.00163
1.04052
0.995444
1.0213
0.984003
1.0106
0.963915
1.03421
0.77152
2.14578
0.99344
1.05331
0.971707
1.07742
1.00444
1.07826
1.00452
1.06684
0.988175
1.05288
0.991718
1.04018
0.982706
1.02821
0.964735
1.00915
0.971987
1.03337
0.773993
2.1444
1.05822
0.968649
1.07352
1.00964
1.06788
1.03091
1.05651
1.02206
1.04096
1.01337
1.0423
0.997765
1.03524
0.997085
1.01954
0.979812
1.00697
0.963884
1.03374
0.773826
2.14343
0.986201
1.04746
0.967582
1.07102
1.00509
1.07334
1.01748
1.06866
1.00273
1.05144
0.985465
1.05081
0.986469
1.03726
0.984281
1.02403
0.963324
1.00566
0.972741
1.03332
0.776192
2.14189
1.07288
0.973637
1.07321
1.01354
1.06856
1.02761
1.06269
1.02858
1.05518
1.02443
1.04225
1.01169
1.04539
0.996992
1.03568
0.996879
1.01645
0.977696
1.00286
0.965179
1.03389
0.776305
2.14053
0.994648
1.04968
0.96916
1.06998
1.00953
1.07206
1.02104
1.06748
1.0045
1.06009
0.992262
1.0566
0.983466
1.04813
0.988055
1.03334
0.976384
1.0199
0.960646
1.00654
0.972393
1.03368
0.778676
2.13867
1.06267
0.960282
1.06987
1.0122
1.06665
1.02635
1.06346
1.02641
1.06125
1.02438
1.05091
1.02089
1.04565
1.00494
1.04924
0.996034
1.03363
0.996238
1.0148
0.974029
1.00502
0.966268
1.03422
0.778958
2.13726
0.987604
1.06502
0.970487
1.06933
1.00967
1.07075
1.01949
1.06899
1.01682
1.06256
1.00937
1.05659
0.992416
1.05818
0.986401
1.0416
0.987457
1.03001
0.9798
1.01986
0.959232
1.00546
0.971899
1.0342
0.781564
2.1352
1.06544
0.972815
1.06947
1.01463
1.06571
1.02967
1.06344
1.02509
1.06084
1.02541
1.05382
1.01513
1.04416
1.00752
1.04675
1.01493
1.04578
0.990304
1.03256
0.994259
1.01154
0.976218
1.00762
0.966521
1.03461
0.781899
2.13335
0.98696
1.04841
0.971244
1.06438
1.00438
1.07167
1.02118
1.07022
1.01884
1.06476
1.00674
1.05648
1.00003
1.05363
0.993771
1.05393
0.987319
1.04315
0.987395
1.02555
0.979319
1.02161
0.960709
1.00201
0.971969
1.03449
0.785004
2.13108
1.06447
0.96887
1.06754
1.00967
1.06409
1.03053
1.0645
1.03493
1.06268
1.02804
1.06108
1.02021
1.05297
1.00923
1.04118
1.00984
1.04347
1.00711
1.04846
0.990635
1.02779
0.989403
1.00892
0.975818
1.00355
0.965109
1.03492
0.785474
2.12909
0.984637
1.04956
0.976151
1.06257
1.00083
1.07076
1.02153
1.07259
1.0169
1.06437
1.02048
1.06564
1.00783
1.05689
1.00075
1.05535
0.994648
1.05321
0.996822
1.04399
0.996409
1.02763
0.98553
1.02071
0.965152
1.00294
0.970689
1.03485
0.788918
2.12652
1.05922
0.963428
1.06192
1.00465
1.0602
1.03138
1.06494
1.04185
1.06412
1.02687
1.06514
1.02024
1.05845
1.01792
1.05261
1.00616
1.04337
1.00566
1.04131
0.996497
1.04362
0.986957
1.0238
0.983598
1.00826
0.975228
1.00545
0.965095
1.03544
0.789202
2.12395
0.980086
1.05568
0.974122
1.05705
0.995995
1.06656
1.01907
1.07477
1.01686
1.07396
1.02384
1.06557
1.01317
1.06109
1.00779
1.05635
0.999526
1.05854
0.998922
1.05418
0.996166
1.04395
0.991095
1.02567
0.987027
1.01842
0.963843
1.00081
0.968998
1.03558
0.793588
2.12073
1.05997
0.97623
1.05119
1.00244
1.05337
1.03048
1.06285
1.04824
1.06849
1.03253
1.06632
1.03022
1.06503
1.01919
1.05899
1.01113
1.05212
0.999458
1.04916
1.00703
1.048
0.998495
1.04014
0.990981
1.02315
0.979641
1.00966
0.979387
1.00697
0.964151
1.03657
0.793963
2.1181
0.984999
1.04192
0.966026
1.05538
0.991074
1.0638
1.0169
1.07521
1.02668
1.06834
1.01519
1.06425
1.01348
1.06662
1.01103
1.06162
1.00988
1.0582
0.998558
1.05894
0.999361
1.05081
0.993255
1.03701
1.00379
1.02344
0.981271
1.02193
0.962419
1.0039
0.97048
1.03725
0.798756
2.11604
1.05349
0.968399
1.05035
1.00387
1.04908
1.02767
1.05996
1.05255
1.06057
1.03667
1.06207
1.03425
1.0662
1.0236
1.06368
1.02312
1.05821
1.00702
1.05513
1.00777
1.04814
1.01506
1.04713
1.00606
1.03425
0.99521
1.02534
0.988089
1.01097
0.979569
1.00335
0.963427
1.04215
0.779248
2.11388
0.979185
1.04121
0.96519
1.05201
0.985126
1.05971
1.01126
1.07226
1.04338
1.06427
1.01775
1.06141
1.01796
1.06335
1.01544
1.06102
1.01184
1.05434
1.00421
1.05874
1.00516
1.05742
1.00014
1.04861
0.998723
1.03645
0.988355
1.02558
0.981307
1.0189
0.965538
1.00533
0.966437
1.05888
0.783769
2.11108
1.05184
0.965313
1.0487
1.00159
1.04675
1.02493
1.05793
1.04641
1.05436
1.03209
1.06118
1.03124
1.06012
1.03304
1.06667
1.02544
1.05796
1.01924
1.05663
1.00863
1.0535
1.01152
1.04942
1.01079
1.0438
1.00324
1.03438
0.993152
1.02175
0.988255
1.00985
0.974454
1.00976
0.952234
1.05588
0.789444
2.10812
0.977765
1.05129
0.976711
1.04968
0.982489
1.05642
1.012
1.07119
1.03388
1.06972
1.02426
1.06345
1.01614
1.06269
1.01963
1.06249
1.01368
1.05958
1.01645
1.05302
1.006
1.05869
1.00941
1.05225
0.998782
1.04384
0.994467
1.03452
0.994429
1.02106
0.977549
1.02354
0.969216
1.0053
0.963993
1.05269
0.792504
2.10559
1.05698
0.987854
1.03904
0.999094
1.04937
1.02303
1.0595
1.04043
1.05746
1.04405
1.06199
1.02728
1.05822
1.02953
1.06544
1.03463
1.06593
1.02514
1.05278
1.02287
1.05769
1.01585
1.05314
1.01643
1.04954
1.01297
1.04342
1.00137
1.03265
0.998391
1.02236
0.985846
1.01348
0.970283
1.00902
0.959241
1.05141
0.797524
2.10343
0.992094
1.04109
0.982771
1.05146
0.988137
1.0527
1.0169
1.06648
1.02594
1.06864
1.02733
1.06994
1.0223
1.06351
1.02031
1.06625
1.0137
1.06589
1.01684
1.053
1.00874
1.05313
1.01185
1.05227
1.00667
1.04395
1.00866
1.04132
1.00155
1.029
0.9959
1.02343
0.978166
1.02047
0.967292
1.00729
0.965883
1.05395
0.779582
2.10118
1.04599
0.987272
1.03321
1.0024
1.05045
1.0186
1.06088
1.03411
1.06354
1.04018
1.05565
1.03514
1.06258
1.03244
1.06017
1.0224
1.06768
1.02749
1.06331
1.02348
1.05493
1.01589
1.05041
1.01153
1.05009
1.01559
1.03818
1.01785
1.0387
1.00833
1.02702
0.993203
1.02226
0.986012
1.01298
0.976404
1.0051
0.960746
1.06848
0.784531
2.09834
0.978894
1.0454
0.978761
1.05195
0.992771
1.04773
1.02271
1.05991
1.02768
1.06147
1.03351
1.06037
1.01896
1.06733
1.02806
1.06458
1.01622
1.06365
1.02209
1.05759
1.02129
1.05331
1.01964
1.04942
1.01154
1.0455
1.02307
1.0342
1.01234
1.03597
1.00461
1.02956
0.995753
1.02107
0.983583
1.01639
0.970261
1.00672
0.960803
1.06457
0.789715
2.09544
1.06169
0.981896
1.04385
1.00694
1.05172
1.01367
1.06095
1.03545
1.06187
1.04639
1.05445
1.04821
1.06178
1.03241
1.05695
1.03615
1.06335
1.03036
1.06087
1.027
1.05233
1.03177
1.05165
1.01852
1.04663
1.02094
1.04108
1.02875
1.03987
1.0198
1.03509
1.00514
1.0272
0.996084
1.01924
0.98409
1.01086
0.967436
1.01082
0.956271
1.06194
0.794534
2.09229
0.985572
1.05026
0.992259
1.04883
0.997447
1.04561
1.02977
1.05077
1.04429
1.05694
1.03639
1.0613
1.02961
1.06146
1.02694
1.0585
1.02141
1.0611
1.02691
1.06057
1.03235
1.05231
1.02191
1.05031
1.02089
1.04374
1.02727
1.03881
1.02217
1.03622
1.01215
1.03299
1.00211
1.02716
0.995081
1.01709
0.983568
1.01555
0.970866
1.00924
0.965945
1.05785
0.798391
2.08938
1.0461
0.986315
1.03619
1.00491
1.05256
1.00896
1.06175
1.02897
1.05867
1.04005
1.05211
1.0389
1.05999
1.04339
1.06224
1.04398
1.05616
1.03899
1.05946
1.03283
1.05935
1.03497
1.05224
1.0323
1.04744
1.02728
1.04074
1.02967
1.03879
1.02467
1.03568
1.01491
1.03369
1.00379
1.02479
0.996861
1.01485
0.984245
1.0094
0.962508
1.01008
0.962067
1.05529
0.802276
2.08703
1.0054
1.04323
1
1.04755
1.00008
1.0407
1.03201
1.04425
1.05128
1.05126
1.04232
1.04748
1.03456
1.06651
1.02495
1.05988
1.03467
1.05894
1.03145
1.05758
1.02309
1.05723
1.03
1.05204
1.02939
1.04456
1.02747
1.03891
1.02256
1.03713
1.0219
1.03306
1.01218
1.03163
1.00501
1.02323
0.997293
1.01375
0.983171
1.01766
0.970009
1.01342
0.969126
1.05771
0.787414
2.08422
1.03563
0.991613
1.02569
1.00183
1.05278
1.00423
1.0659
1.02232
1.06621
1.03528
1.05927
1.03993
1.05995
1.03648
1.05979
1.05383
1.05635
1.04821
1.0529
1.03899
1.0569
1.03827
1.0545
1.03929
1.05089
1.03827
1.04308
1.02901
1.03798
1.02564
1.03611
1.0195
1.03533
1.01049
1.02929
1.00678
1.02117
0.995483
1.01274
0.982067
1.01629
0.961816
1.00832
0.962183
1.0695
0.790704
2.08113
0.990641
1.03299
0.987806
1.04789
1.00061
1.0357
1.03182
1.04011
1.05029
1.05186
1.04642
1.05338
1.03558
1.05685
1.02946
1.06024
1.03494
1.05392
1.03504
1.05405
1.02446
1.05558
1.03253
1.05221
1.03287
1.0491
1.03219
1.04098
1.026
1.03702
1.02286
1.03516
1.01677
1.03883
1.01123
1.02723
1.005
1.02017
0.993355
1.01781
0.979997
1.02058
0.972459
1.01234
0.958455
1.0656
0.797224
2.07786
1.04277
0.998379
1.03231
1.0004
1.04864
0.999285
1.06575
1.01646
1.06749
1.02842
1.06163
1.0343
1.06319
1.03172
1.06255
1.04451
1.05756
1.0562
1.054
1.04032
1.05605
1.04242
1.05367
1.04351
1.05253
1.03776
1.04712
1.0334
1.0414
1.02463
1.037
1.02113
1.03738
1.01367
1.04228
1.0097
1.02586
1.00399
1.02071
0.990776
1.01596
0.979528
1.01884
0.964925
1.014
0.960012
1.06144
0.799534
2.07524
0.985966
1.02309
0.99033
1.04859
0.999835
1.03143
1.03413
1.03978
1.04973
1.04732
1.04329
1.05298
1.03916
1.05827
1.03528
1.05383
1.03639
1.05543
1.03502
1.05169
1.03672
1.0549
1.03804
1.05167
1.03577
1.04969
1.03909
1.04542
1.03115
1.03965
1.02272
1.03646
1.01882
1.041
1.01163
1.04025
1.00814
1.02526
1.00176
1.02045
0.987923
1.02158
0.977796
1.02043
0.963979
1.0174
0.963893
1.05864
0.804916
2.07245
1.0399
1.00183
1.01875
1.00543
1.04853
0.999403
1.06445
1.01161
1.0672
1.02193
1.07112
1.03245
1.06465
1.0329
1.06093
1.03793
1.05999
1.04301
1.05506
1.04475
1.05649
1.03755
1.05374
1.04427
1.04925
1.04565
1.04947
1.0401
1.04566
1.02998
1.03999
1.0207
1.03786
1.01585
1.04414
1.01008
1.04109
1.00681
1.0248
0.999873
1.02208
0.985114
1.01998
0.975715
1.02107
0.965392
1.01696
0.964301
1.06126
0.788986
2.06999
0.994036
1.01633
0.99348
1.0443
0.992709
1.02734
1.03102
1.03674
1.04738
1.04474
1.04124
1.05724
1.04039
1.05911
1.03691
1.05982
1.0356
1.05385
1.03988
1.05623
1.04258
1.05425
1.03981
1.0517
1.03905
1.04735
1.0346
1.04736
1.03726
1.04613
1.02825
1.04043
1.01807
1.04104
1.01341
1.04767
1.00867
1.04035
1.00509
1.02601
0.997534
1.02606
0.982676
1.02458
0.97526
1.02413
0.968756
1.02231
0.968254
1.07121
0.7946
2.06709
1.03187
0.985957
1.02466
1.00372
1.04683
0.997468
1.0633
1.01305
1.06856
1.02201
1.07267
1.03023
1.06539
1.03819
1.06578
1.03587
1.0617
1.03979
1.0573
1.0373
1.05615
1.04189
1.05293
1.04479
1.05016
1.04224
1.04714
1.03862
1.04808
1.03621
1.04542
1.02624
1.04032
1.01572
1.04522
1.01245
1.04857
1.00731
1.04099
1.00295
1.02914
0.994962
1.0235
0.98425
1.02376
0.973181
1.02213
0.971176
1.01704
0.958787
1.06773
0.798067
2.06425
1.00095
1.02419
0.9974
1.03866
0.999867
1.03034
1.03257
1.03583
1.04446
1.03884
1.04144
1.05024
1.04153
1.05539
1.041
1.05834
1.04157
1.0565
1.03849
1.05583
1.0398
1.05443
1.04165
1.05286
1.03994
1.04965
1.03972
1.04817
1.03612
1.04707
1.03469
1.04576
1.024
1.04427
1.0141
1.0471
1.01247
1.0482
1.00539
1.04074
1.0009
1.03091
0.992627
1.02671
0.981664
1.026
0.97384
1.02412
0.967414
1.01985
0.961408
1.06444
0.803038
2.0611
1.02465
0.977661
1.02278
1.00539
1.04695
0.994884
1.06033
1.01247
1.06615
1.02335
1.06762
1.02826
1.06278
1.03677
1.06275
1.04217
1.06482
1.03824
1.05877
1.04021
1.0569
1.04084
1.05301
1.04474
1.04918
1.04151
1.04943
1.03872
1.05155
1.03512
1.04739
1.03346
1.04573
1.02128
1.04793
1.01315
1.04778
1.01423
1.04899
1.00343
1.04339
0.999438
1.03374
0.990122
1.02745
0.981178
1.02552
0.975795
1.02194
0.973843
1.0197
0.962408
1.06122
0.805573
2.05792
0.993782
1.03629
1.00955
1.03304
1.00227
1.03005
1.03111
1.03536
1.04351
1.03628
1.04775
1.04684
1.04983
1.04964
1.04061
1.05338
1.04432
1.05593
1.0442
1.05609
1.03904
1.05099
1.03827
1.05379
1.03677
1.0509
1.03932
1.04967
1.03734
1.05168
1.034
1.04624
1.03209
1.04809
1.01906
1.04863
1.01616
1.04663
1.01587
1.04686
1.00212
1.04464
0.997508
1.03418
0.988014
1.02853
0.977293
1.02826
0.974318
1.02507
0.967884
1.02257
0.963717
1.05766
0.810566
2.05429
1.02952
0.987592
1.02077
0.995276
1.04799
0.993167
1.05777
1.01211
1.06477
1.0219
1.06383
1.03028
1.06256
1.03178
1.05237
1.04093
1.05858
1.04242
1.06164
1.04079
1.0546
1.04338
1.05564
1.04098
1.05126
1.04719
1.04853
1.03808
1.05012
1.03683
1.05187
1.03493
1.04623
1.03037
1.04956
1.0177
1.04772
1.01999
1.04683
1.01596
1.0503
1.00091
1.04797
0.996587
1.03719
0.98637
1.02977
0.978811
1.02966
0.976578
1.02099
0.970372
1.02674
0.962871
1.05443
0.812241
2.05078
0.988088
1.03602
1.00614
1.03537
1.01192
1.02915
1.02992
1.03674
1.04547
1.02999
1.04893
1.04182
1.04683
1.04629
1.04893
1.0489
1.04469
1.05428
1.04442
1.05564
1.04576
1.05305
1.04115
1.05271
1.04195
1.05041
1.03491
1.04978
1.03682
1.05168
1.03492
1.05106
1.03609
1.0456
1.02899
1.05143
1.01915
1.04764
1.02173
1.04451
1.01345
1.05177
0.999752
1.04554
0.997223
1.03717
0.986236
1.0305
0.979011
1.02932
0.977169
1.02577
0.968415
1.02559
0.965964
1.05224
0.816956
2.04807
1.03397
1.0008
1.02339
0.990835
1.04768
0.991233
1.05858
1.0118
1.06017
1.02231
1.06069
1.02791
1.04635
1.028
1.05299
1.03723
1.05318
1.04137
1.05665
1.04304
1.05545
1.04181
1.05268
1.04391
1.05293
1.04007
1.04979
1.04784
1.05228
1.03589
1.05141
1.03483
1.05112
1.03835
1.04739
1.02678
1.05368
1.02188
1.04636
1.02486
1.04259
1.015
1.04984
1.00175
1.04587
0.997333
1.03919
0.988851
1.02939
0.978122
1.02797
0.975745
1.02263
0.969808
1.03001
0.961763
1.05448
0.803977
2.04494
0.994266
1.02838
0.990119
1.03816
1.01172
1.02583
1.029
1.03552
1.046
1.02693
1.04841
1.03034
1.04093
1.04378
1.04586
1.04982
1.04731
1.05087
1.04538
1.05425
1.04303
1.05464
1.04186
1.05173
1.03943
1.05078
1.03911
1.05074
1.03401
1.05227
1.03485
1.05384
1.03411
1.04958
1.03709
1.04849
1.02514
1.05176
1.02481
1.04477
1.02707
1.04259
1.01483
1.05384
1.00465
1.04539
0.996756
1.03936
0.988852
1.02905
0.976074
1.02935
0.976829
1.02476
0.970944
1.02842
0.966155
1.06455
0.80792
2.04186
1.02768
0.993379
1.02925
0.993534
1.04889
0.992996
1.05846
1.01173
1.05526
1.01992
1.05446
1.0207
1.04921
1.03422
1.05497
1.03718
1.04576
1.04036
1.05321
1.04094
1.05958
1.04235
1.05854
1.0397
1.05269
1.04053
1.05272
1.03878
1.05122
1.04497
1.05391
1.03366
1.05295
1.03635
1.04858
1.0385
1.05165
1.02539
1.05115
1.02832
1.04255
1.02905
1.04335
1.01327
1.0521
1.00507
1.04323
0.999205
1.03799
0.989748
1.02745
0.974163
1.02793
0.975816
1.02272
0.971753
1.02811
0.959855
1.06174
0.81174
2.03853
0.988672
1.03174
0.989034
1.03607
1.01761
1.02332
1.02609
1.03148
1.04638
1.02801
1.04178
1.03136
1.04746
1.03362
1.0366
1.04093
1.04294
1.04608
1.04725
1.0524
1.04705
1.0536
1.04061
1.05622
1.03938
1.05192
1.03891
1.05381
1.03797
1.05237
1.0349
1.05477
1.03297
1.05429
1.037
1.04749
1.03601
1.05271
1.027
1.05
1.02873
1.04018
1.02746
1.04035
1.01086
1.05202
1.00543
1.04296
1.00009
1.03794
0.989018
1.02803
0.973157
1.02982
0.975456
1.02917
0.967709
1.02707
0.965615
1.05839
0.814999
2.03551
1.03205
0.988087
1.0244
1.00086
1.04326
0.990142
1.05438
1.01265
1.05385
1.01824
1.05164
1.01691
1.05308
1.01292
1.04435
1.03694
1.04578
1.03939
1.04506
1.03877
1.0521
1.04232
1.05602
1.04215
1.05976
1.0393
1.05437
1.03788
1.05677
1.03662
1.05371
1.04217
1.05534
1.03321
1.0526
1.03832
1.0467
1.03623
1.05561
1.02878
1.04857
1.02969
1.0386
1.02648
1.04344
1.01415
1.05099
1.00813
1.04154
0.999658
1.03615
0.988619
1.03201
0.974236
1.02979
0.975644
1.02827
0.974588
1.02627
0.966203
1.05609
0.818396
2.03234
0.981588
1.03385
0.994805
1.03487
1.01179
1.0192
1.02484
1.02952
1.04683
1.02578
1.03725
1.03089
1.04146
1.03419
1.05127
1.03855
1.03891
1.0452
1.04581
1.04814
1.04852
1.05251
1.04513
1.05378
1.04462
1.05598
1.04149
1.05373
1.03691
1.05552
1.03692
1.05421
1.03658
1.05575
1.03353
1.05325
1.03902
1.04671
1.03352
1.05342
1.03167
1.04701
1.02997
1.03851
1.02527
1.0441
1.01642
1.05006
1.00767
1.04049
1.00305
1.03505
0.986685
1.03338
0.972761
1.03222
0.975171
1.03186
0.975268
1.02615
0.966224
1.05781
0.806772
2.02938
1.03696
0.993092
1.01958
1.00026
1.04687
0.989143
1.05211
1.01097
1.05238
1.01788
1.05053
1.0154
1.05174
1.01552
1.04994
1.02058
1.04604
1.03486
1.04266
1.03726
1.04726
1.03662
1.05363
1.04382
1.05104
1.03895
1.05378
1.04291
1.05518
1.03626
1.05774
1.03763
1.05421
1.04172
1.05581
1.03499
1.051
1.03977
1.0472
1.03291
1.05229
1.03549
1.04539
1.02876
1.03766
1.02413
1.04322
1.0153
1.04918
1.00838
1.03959
1.00483
1.03489
0.986898
1.03313
0.97785
1.0348
0.980786
1.02898
0.975238
1.02449
0.968781
1.06653
0.80973
2.0265
0.987131
1.03274
0.998574
1.03158
1.01425
1.01751
1.02523
1.02593
1.04582
1.0262
1.0363
1.03005
1.04014
1.03305
1.044
1.03464
1.04097
1.04108
1.04148
1.04355
1.04217
1.04635
1.04656
1.05199
1.04701
1.05571
1.04487
1.05271
1.04021
1.05384
1.03584
1.05478
1.03929
1.05402
1.03846
1.05587
1.0347
1.05163
1.03864
1.04848
1.03472
1.05078
1.03618
1.04363
1.03093
1.03831
1.02346
1.04596
1.01517
1.04859
1.01073
1.03748
1.00538
1.03518
0.985004
1.03518
0.982671
1.03371
0.980828
1.02848
0.975575
1.02184
0.963641
1.06354
0.814439
2.02339
1.03526
0.994077
1.01952
0.998379
1.04347
0.988227
1.04842
1.00808
1.05223
1.01743
1.05236
1.01842
1.0525
1.01504
1.05508
1.01819
1.04442
1.02832
1.04647
1.03211
1.04711
1.03903
1.04911
1.03777
1.051
1.04448
1.04984
1.04472
1.05506
1.04137
1.05526
1.03753
1.05742
1.04024
1.05444
1.04179
1.05538
1.03793
1.04969
1.0406
1.04888
1.03579
1.04929
1.0358
1.04216
1.03008
1.03753
1.02226
1.04819
1.01439
1.0476
1.01257
1.03528
1.00695
1.03553
0.988151
1.03247
0.9852
1.03659
0.982807
1.0272
0.978502
1.0204
0.965919
1.06067
0.816819
2.02032
0.994217
1.02796
0.996003
1.02758
1.00585
1.01628
1.02296
1.02437
1.04701
1.02815
1.03316
1.03245
1.04006
1.0343
1.04215
1.03361
1.04401
1.04156
1.03603
1.03971
1.0363
1.04397
1.03962
1.0467
1.04996
1.04995
1.04847
1.05417
1.04408
1.05234
1.04
1.05549
1.03861
1.05354
1.04183
1.05294
1.03901
1.05537
1.03602
1.04929
1.0389
1.05
1.03678
1.0481
1.0375
1.04062
1.02802
1.03647
1.0209
1.04766
1.01632
1.04674
1.01403
1.03411
1.0062
1.03602
0.988758
1.03238
0.988386
1.03134
0.984521
1.027
0.978322
1.02022
0.966164
1.05716
0.821626
2.01681
1.03033
0.993227
1.0179
0.989996
1.04567
0.987776
1.04543
1.00861
1.05052
1.01729
1.05126
1.02235
1.05169
1.01754
1.05269
1.0168
1.04892
1.02185
1.04251
1.02814
1.04927
1.03287
1.05042
1.03701
1.04706
1.03852
1.0488
1.04505
1.05204
1.04466
1.0536
1.0406
1.05446
1.04023
1.05384
1.04191
1.05329
1.04012
1.05449
1.03918
1.04833
1.04119
1.05041
1.0367
1.04698
1.03687
1.03947
1.02802
1.0368
1.01956
1.04821
1.01693
1.04573
1.01613
1.03254
1.00494
1.03625
0.9919
1.03094
0.990544
1.03583
0.982073
1.02438
0.974596
1.02147
0.965991
1.05358
0.823472
2.01335
0.998323
1.02127
0.998615
1.02796
1.01821
1.01491
1.0224
1.02281
1.04535
1.02889
1.03286
1.03365
1.02879
1.03384
1.04204
1.03407
1.04277
1.0373
1.03792
1.04383
1.03843
1.04267
1.03526
1.04462
1.04188
1.04525
1.05008
1.0474
1.04531
1.05547
1.0464
1.05178
1.03918
1.05579
1.0413
1.0526
1.0432
1.0527
1.03922
1.05322
1.03824
1.04771
1.03932
1.05045
1.03669
1.04564
1.03617
1.0386
1.02686
1.03673
1.01851
1.04945
1.01851
1.04454
1.01503
1.03214
1.00393
1.03466
0.99588
1.02909
0.991534
1.03023
0.981515
1.02971
0.97169
1.02396
0.965108
1.05169
0.827748
2.01015
1.02604
0.994672
1.01074
0.984282
1.03876
0.985787
1.04387
1.00849
1.04824
1.01947
1.04693
1.02461
1.04619
1.02578
1.05026
1.02604
1.04975
1.02016
1.04408
1.02406
1.04354
1.03118
1.04484
1.03268
1.04475
1.04027
1.04659
1.04044
1.04928
1.04406
1.05159
1.04105
1.05355
1.03966
1.05395
1.04363
1.05129
1.04253
1.05457
1.0398
1.05316
1.04136
1.04654
1.04029
1.0491
1.03686
1.0441
1.03575
1.03833
1.02543
1.03685
1.01797
1.05005
1.01849
1.04335
1.01817
1.03157
1.00423
1.03373
0.995148
1.02671
0.991168
1.03385
0.979256
1.02923
0.968939
1.0238
0.970561
1.05346
0.816492
2.0076
0.996074
1.01457
0.999463
1.03042
1.01174
1.0144
1.02379
1.02148
1.04372
1.02956
1.02987
1.03666
1.03409
1.03919
1.03163
1.03438
1.03268
1.03617
1.04102
1.04384
1.03949
1.04127
1.03926
1.04431
1.04679
1.0449
1.04241
1.0437
1.04483
1.0489
1.04323
1.0534
1.04597
1.05244
1.03805
1.05391
1.04458
1.05007
1.04201
1.0528
1.03884
1.05197
1.0398
1.0463
1.03855
1.05009
1.0359
1.04294
1.03482
1.03835
1.02403
1.03685
1.01735
1.04931
1.01791
1.04224
1.01575
1.03181
1.00491
1.03269
0.995931
1.02537
0.989447
1.03221
0.977575
1.03052
0.970252
1.02134
0.971534
1.06185
0.820031
2.00445
1.02363
0.989673
1.00676
0.981119
1.04117
0.987803
1.04436
1.00941
1.04714
1.02079
1.04556
1.02497
1.04256
1.01965
1.03843
1.02749
1.0435
1.02586
1.04317
1.02618
1.04128
1.02951
1.04215
1.03213
1.04626
1.032
1.04334
1.0392
1.04487
1.04012
1.04919
1.04393
1.04985
1.0407
1.05466
1.03981
1.05234
1.04458
1.05094
1.04215
1.05403
1.04136
1.05136
1.04144
1.04517
1.03841
1.04976
1.03496
1.0432
1.03368
1.03743
1.02254
1.03746
1.01544
1.04937
1.02066
1.04142
1.01819
1.0315
1.00505
1.03161
0.998605
1.02565
0.988006
1.03522
0.977133
1.03235
0.97264
1.01979
0.967086
1.05911
0.823748
2.00112
1.00131
1.01141
0.995596
1.02816
1.02058
1.01174
1.02275
1.01979
1.04275
1.02828
1.0308
1.03342
1.03479
1.03666
1.03741
1.03333
1.03463
1.03884
1.03602
1.04075
1.03929
1.04149
1.03613
1.04352
1.03752
1.04331
1.04549
1.04347
1.04142
1.04299
1.04264
1.0495
1.04303
1.05089
1.04282
1.05379
1.03894
1.05225
1.04527
1.04879
1.043
1.052
1.03869
1.05067
1.04019
1.04608
1.03702
1.04985
1.03422
1.04211
1.03225
1.03776
1.02102
1.0397
1.0156
1.04834
1.02088
1.04076
1.01499
1.03212
1.00628
1.03045
0.996477
1.02547
0.986242
1.03765
0.976291
1.03278
0.970795
1.02003
0.969163
1.05579
0.826704
1.99825
1.01878
0.984107
1.00437
0.981973
1.03171
0.986046
1.04458
1.0094
1.04833
1.0224
1.04474
1.029
1.04104
1.02886
1.04198
1.02605
1.04523
1.02812
1.04321
1.02779
1.04296
1.02852
1.03805
1.0292
1.04281
1.02958
1.04427
1.0382
1.04207
1.03776
1.04375
1.04016
1.04982
1.0419
1.0485
1.04004
1.05477
1.04038
1.05146
1.04528
1.04887
1.04256
1.05221
1.03937
1.0496
1.04001
1.04643
1.03686
1.04964
1.03339
1.04255
1.03084
1.03804
1.0193
1.04133
1.01721
1.04759
1.02239
1.0403
1.01609
1.03207
1.00665
1.02924
0.996943
1.0256
0.985262
1.03804
0.977545
1.03211
0.973527
1.01869
0.975039
1.05339
0.829972
1.99505
1.0003
1.01294
0.98881
1.02397
1.02053
1.01044
1.0236
1.01991
1.04345
1.02648
1.03099
1.03134
1.03136
1.04029
1.02877
1.0338
1.03522
1.03288
1.03485
1.03825
1.0381
1.04055
1.03476
1.04088
1.03601
1.04413
1.0383
1.04292
1.04131
1.04528
1.04337
1.0438
1.04095
1.05133
1.04103
1.05216
1.04253
1.05508
1.03875
1.05057
1.04539
1.04935
1.04317
1.05126
1.04012
1.04882
1.03918
1.04772
1.03552
1.04966
1.03228
1.04278
1.02955
1.03782
1.01772
1.0445
1.01905
1.04683
1.02182
1.03988
1.01525
1.03338
1.00624
1.02789
0.996047
1.02481
0.983373
1.03887
0.979132
1.03366
0.97228
1.01824
0.977094
1.0548
0.819649
1.99219
1.01656
0.98207
1.00252
0.987216
1.03642
0.985373
1.04529
1.00952
1.04914
1.02343
1.04379
1.02732
1.04076
1.02054
1.04198
1.03309
1.04296
1.02784
1.04355
1.02799
1.03983
1.02938
1.04209
1.03172
1.04065
1.03055
1.04423
1.03532
1.04274
1.03821
1.04585
1.03633
1.04555
1.0403
1.05004
1.04193
1.04981
1.04109
1.05288
1.04172
1.04982
1.04349
1.05051
1.04298
1.05023
1.03851
1.05018
1.0396
1.04826
1.03508
1.0507
1.0316
1.04296
1.02781
1.03833
1.01632
1.04774
1.0176
1.04623
1.01917
1.03938
1.01215
1.03304
1.00611
1.02609
0.996081
1.02512
0.983826
1.03991
0.981932
1.03108
0.978127
1.01738
0.977928
1.06265
0.822349
1.98913
0.995599
1.01282
0.978837
1.0222
1.01582
1.00762
1.02393
1.01981
1.04442
1.02726
1.03337
1.03682
1.03052
1.03836
1.03608
1.03986
1.03043
1.03534
1.0361
1.0348
1.03687
1.03731
1.03637
1.03815
1.03678
1.0423
1.03727
1.04311
1.03599
1.04184
1.04042
1.04391
1.04136
1.04475
1.03995
1.05177
1.04028
1.05295
1.04209
1.05356
1.04213
1.0485
1.04355
1.05013
1.04189
1.05029
1.03853
1.0489
1.0378
1.04857
1.0342
1.04908
1.03022
1.04288
1.02612
1.04133
1.01508
1.0494
1.01885
1.0449
1.02219
1.0392
1.0159
1.03367
1.00643
1.02423
0.996561
1.02651
0.98225
1.03718
0.983654
1.03235
0.975239
1.018
0.972362
1.06001
0.827263
1.98628
1.01368
0.987807
1.01037
0.992909
1.03264
0.988723
1.04564
1.00842
1.05131
1.02387
1.0447
1.03142
1.04196
1.03007
1.04202
1.02939
1.03786
1.03373
1.04308
1.02856
1.04383
1.03036
1.04111
1.02869
1.04206
1.03119
1.04297
1.02979
1.04366
1.03754
1.04146
1.03789
1.04593
1.03646
1.04897
1.03953
1.05159
1.04003
1.05169
1.04198
1.05251
1.04077
1.04854
1.04335
1.05103
1.04158
1.05102
1.03885
1.05084
1.03884
1.04909
1.03387
1.05033
1.02917
1.04347
1.02462
1.04282
1.01397
1.05081
1.0189
1.0445
1.02373
1.03858
1.01361
1.0326
1.00582
1.02258
0.995979
1.02777
0.983724
1.03596
0.988282
1.03188
0.978994
1.01765
0.976199
1.05725
0.82944
1.98308
0.991567
1.0095
0.974395
1.01854
1.01954
1.00794
1.02483
1.0192
1.04798
1.029
1.03301
1.03737
1.02379
1.03648
1.02845
1.04089
1.03378
1.03457
1.03239
1.03591
1.03562
1.0358
1.03713
1.03757
1.03558
1.04015
1.03566
1.04301
1.03648
1.04188
1.03778
1.04309
1.03933
1.04578
1.04151
1.04548
1.04125
1.05049
1.03985
1.04999
1.04568
1.05184
1.04469
1.04728
1.04169
1.05072
1.04152
1.049
1.03784
1.05052
1.03644
1.04914
1.03261
1.04938
1.02784
1.04424
1.02309
1.04612
1.01409
1.05004
1.01814
1.04392
1.02313
1.03749
1.0166
1.03271
1.00695
1.02167
0.994688
1.02989
0.987181
1.03396
0.989898
1.0293
0.981218
1.01881
0.975312
1.05454
0.834342
1.97955
1.01565
0.989364
1.01616
0.993365
1.0321
0.989992
1.04613
1.00901
1.05322
1.02338
1.04644
1.03033
1.04373
1.03279
1.04127
1.02946
1.04092
1.03321
1.04178
1.0319
1.04314
1.03033
1.04024
1.03114
1.04202
1.03161
1.04282
1.03127
1.04364
1.03537
1.04249
1.03762
1.04446
1.03691
1.04632
1.03872
1.04844
1.03919
1.05249
1.04195
1.05003
1.04403
1.05114
1.04198
1.0476
1.04163
1.05111
1.04035
1.0502
1.03761
1.05131
1.03686
1.04898
1.0314
1.05061
1.02677
1.04561
1.02143
1.0496
1.01531
1.04911
1.01979
1.04305
1.02539
1.0361
1.01484
1.03115
1.00556
1.02132
0.992736
1.03174
0.991176
1.03216
0.991194
1.03013
0.982019
1.01752
0.977247
1.05198
0.836059
1.9764
0.986175
1.0075
0.980151
1.01647
1.02034
1.00901
1.0253
1.01999
1.04949
1.03019
1.03548
1.03307
1.02651
1.04132
1.03313
1.03855
1.03254
1.03843
1.03373
1.03544
1.03308
1.03685
1.03478
1.03586
1.0351
1.0381
1.03732
1.04146
1.03702
1.04164
1.03529
1.04234
1.0363
1.04367
1.03786
1.04674
1.04322
1.04777
1.03897
1.0516
1.04268
1.04929
1.04714
1.05008
1.04286
1.04643
1.04081
1.05111
1.03993
1.04971
1.03847
1.05103
1.03604
1.04964
1.03
1.05056
1.02527
1.04739
1.01969
1.051
1.01625
1.0483
1.02164
1.04212
1.02519
1.03434
1.01645
1.03143
1.0048
1.02168
0.99117
1.03111
0.994278
1.03058
0.991581
1.02864
0.982653
1.01716
0.974754
1.04952
0.841101
1.97262
1.01912
0.989992
1.01696
0.995282
1.0304
0.988477
1.04476
1.00775
1.05486
1.02244
1.04765
1.0314
1.04485
1.03129
1.03825
1.02951
1.04092
1.03433
1.03627
1.03529
1.04006
1.03225
1.03953
1.03181
1.04133
1.03056
1.04113
1.03254
1.04395
1.03238
1.04313
1.03583
1.04326
1.03548
1.04532
1.03741
1.04594
1.03996
1.04782
1.03902
1.05094
1.04224
1.04843
1.04323
1.04897
1.04286
1.04682
1.03989
1.05115
1.03911
1.04948
1.03715
1.05072
1.0361
1.04955
1.02884
1.05249
1.02436
1.04882
1.01828
1.05385
1.01789
1.04746
1.02035
1.04088
1.02655
1.03307
1.01487
1.03167
1.00368
1.02105
0.992581
1.03049
0.997902
1.02954
0.995321
1.02758
0.987582
1.01694
0.977254
1.04714
0.842228
1.96897
0.990798
1.00727
0.985602
1.01519
1.02029
1.00998
1.02744
1.02115
1.05135
1.02993
1.03853
1.03265
1.03268
1.0383
1.03437
1.0393
1.03522
1.03677
1.03203
1.03448
1.03524
1.03848
1.03429
1.0377
1.0333
1.03775
1.03739
1.03936
1.03845
1.0409
1.03817
1.04196
1.03624
1.04246
1.03698
1.04449
1.03848
1.0459
1.04187
1.04758
1.04017
1.04989
1.04373
1.04796
1.0444
1.04899
1.04114
1.04645
1.03856
1.05091
1.03819
1.0498
1.03709
1.05065
1.03451
1.05113
1.02797
1.05374
1.02343
1.05065
1.01717
1.05507
1.02019
1.04648
1.02252
1.03929
1.02974
1.03195
1.01585
1.03213
1.00245
1.02137
0.99516
1.03035
0.998952
1.02826
0.996129
1.02618
0.981494
1.01548
0.974544
1.04564
0.847154
1.96544
1.01711
0.986047
1.01579
0.994088
1.03199
0.989335
1.04274
1.0082
1.05524
1.0219
1.04889
1.02834
1.04471
1.02759
1.04343
1.02957
1.0379
1.03404
1.03918
1.03661
1.03873
1.03518
1.04198
1.03265
1.04098
1.03377
1.03877
1.03214
1.042
1.033
1.0444
1.03346
1.04362
1.03625
1.04332
1.03808
1.04478
1.03885
1.0453
1.03919
1.04745
1.03879
1.05044
1.04139