/*--------------------------------*- C++ -*----------------------------------*\
| =========                 |                                                 |
| \\      /  F ield         | OpenFOAM: The Open Source CFD Toolbox           |
|  \\    /   O peration     | Version:  2206                                  |
|   \\  /    A nd           | Website:  www.openfoam.com                      |
|    \\/     M anipulation  |                                                 |
\*---------------------------------------------------------------------------*/
FoamFile
{
    version     2.0;
    format      ascii;
    arch        "LSB;label=32;scalar=64";
    class       volScalarField;
    location    "200";
    object      rhoMean;
}
// * * * * * * * * * * * * * * * * * * * * * * * * * * * * * * * * * * * * * //

dimensions      [1 -3 0 0 0 0 0];

internalField   nonuniform List<scalar> 
93840
(
2.3394
0.563529
2.28734
1.3523
0.602195
2.08555
0.688238
1.14288
0.681242
1.8229
1.16587
0.941261
1.15024
0.793655
1.67432
0.984444
1.08932
0.921752
1.21388
0.84307
1.57432
1.07558
0.957701
1.11099
0.836479
1.12859
0.84862
1.57136
0.972644
1.08223
0.954575
1.11317
0.87784
1.13654
0.881543
1.55848
1.07543
0.958512
1.09585
0.983223
1.08846
0.916392
1.08086
0.879565
1.56684
0.977208
1.08034
0.957874
1.06542
0.965678
1.06693
0.958674
1.06071
0.879273
1.54928
1.0744
0.975154
1.09333
0.98558
1.06844
0.979334
1.03625
0.980205
1.05786
0.883231
1.56629
0.977978
1.07607
0.970327
1.07006
0.9781
1.04903
0.96994
1.04132
0.979586
1.04524
0.883069
1.55315
1.06894
0.973631
1.0874
0.999105
1.06763
0.99285
1.04712
0.991264
1.02622
0.984936
1.04666
0.884676
1.5637
0.976666
1.06925
0.974186
1.06648
0.990306
1.04962
0.985889
1.04361
0.98521
1.03486
0.980954
1.04367
0.884496
1.54911
1.0686
0.972192
1.07833
0.998593
1.05986
0.997782
1.04781
0.996797
1.03923
0.99561
1.02339
0.98355
1.04409
0.886542
1.5614
0.978757
1.06666
0.975283
1.05778
0.990091
1.04487
0.98891
1.04124
0.99463
1.04017
0.985652
1.03221
0.982624
1.04104
0.886138
1.54501
1.06929
0.9745
1.07363
0.997998
1.05414
0.999114
1.04486
0.997525
1.04232
0.99902
1.03678
0.995505
1.02279
0.983126
1.04317
0.888908
1.55758
0.981182
1.06592
0.979887
1.05507
0.993663
1.04251
0.991385
1.03761
0.992605
1.0377
0.995535
1.03774
0.987481
1.03026
0.983707
1.03945
0.888202
1.54078
1.07006
0.977495
1.07133
1.00066
1.05342
1.00295
1.04525
0.999153
1.04106
0.998589
1.03933
1.00001
1.03395
0.996049
1.02286
0.983789
1.04197
0.891181
1.55373
0.983111
1.06661
0.984313
1.05363
0.99759
1.04145
0.996251
1.03784
0.993173
1.0351
0.993581
1.03593
0.996343
1.03658
0.988224
1.02837
0.98487
1.03838
0.890309
1.53699
1.07057
0.981224
1.06976
1.00314
1.05123
1.00479
1.04479
1.00198
1.04264
0.999518
1.03903
0.999527
1.03722
1.0015
1.03203
0.996745
1.02245
0.984191
1.04078
0.893557
1.54936
0.985642
1.06688
0.988252
1.05308
1.00153
1.04147
1.00098
1.03797
0.997303
1.03636
0.994687
1.03345
0.994575
1.03369
0.996655
1.03609
0.990233
1.02674
0.986127
1.03729
0.892564
1.53365
1.07151
0.985898
1.06908
1.00654
1.05136
1.00851
1.04565
1.00444
1.04288
1.00129
1.04111
1.00099
1.03743
0.999846
1.03528
1.00157
1.03069
0.997138
1.02293
0.984986
1.0397
0.896217
1.54447
0.988482
1.0676
0.993143
1.05394
1.00564
1.04276
1.00575
1.0391
1.00211
1.03702
0.998042
1.0335
0.997256
1.03167
0.99587
1.03314
0.998562
1.03488
0.991607
1.02527
0.98699
1.03625
0.894964
1.53067
1.07154
0.989512
1.06896
1.01083
1.05234
1.01245
1.04682
1.0086
1.04415
1.00417
1.03918
1.00432
1.03859
1.0015
1.03551
0.999834
1.03253
1.0021
1.03023
0.997867
1.02247
0.985823
1.03899
0.897463
1.5298
0.989394
1.0659
0.996339
1.05383
1.0094
1.0439
1.00989
1.04046
1.00689
1.03773
1.00366
1.03428
1.00091
1.03309
0.998492
1.03111
0.997113
1.03257
1.00016
1.03343
0.993124
1.02453
0.987405
1.03535
0.89447
1.52318
1.06925
0.990154
1.06559
1.01271
1.05123
1.01419
1.04611
1.01154
1.04494
1.00834
1.04219
1.00732
1.03849
1.00417
1.03594
1.00323
1.03416
1.00126
1.03085
1.00177
1.03009
0.998184
1.02254
0.986018
1.03775
0.903947
1.52688
0.989542
1.06223
0.997128
1.05117
1.01012
1.04199
1.01081
1.03941
1.00989
1.03936
1.00785
1.03666
1.00489
1.03395
1.00152
1.03214
0.999514
1.03032
0.9979
1.03151
1.00134
1.03249
0.994058
1.0242
0.987761
1.03313
0.901835
1.52362
1.06636
0.990628
1.06172
1.01276
1.04833
1.01386
1.04376
1.01278
1.04374
1.01073
1.0428
1.01034
1.04152
1.00742
1.03687
1.00612
1.0352
1.00336
1.03345
1.00197
1.03008
1.00227
1.03023
0.997491
1.02266
0.985941
1.03623
0.903926
1.52545
0.989587
1.05836
0.997498
1.04727
1.00949
1.03966
1.01116
1.03759
1.01027
1.03805
1.01023
1.03796
1.00905
1.036
1.00551
1.03292
1.0023
1.03178
1.00028
1.02978
0.998615
1.03063
1.00139
1.03281
0.994333
1.02424
0.988194
1.03418
0.902739
1.52063
1.06343
0.990624
1.05726
1.01225
1.04523
1.01314
1.04092
1.01226
1.04079
1.0117
1.04267
1.01191
1.04151
1.01026
1.04067
1.00826
1.03669
1.00597
1.03428
1.00315
1.03212
1.00213
1.02938
1.0019
1.03015
0.996953
1.02269
0.985876
1.0367
0.904229
1.52167
0.990222
1.05382
0.996602
1.043
1.00864
1.03667
1.01017
1.03459
1.01
1.03658
1.0104
1.03713
1.01073
1.03764
1.00984
1.03534
1.00631
1.03251
1.00321
1.03104
1.00125
1.02907
0.999571
1.03047
1.00096
1.03232
0.995375
1.02396
0.988095
1.03521
0.904124
1.51654
1.06142
0.991676
1.05279
1.0102
1.0417
1.01162
1.03719
1.01079
1.03766
1.01123
1.03979
1.01119
1.04121
1.01208
1.04059
1.01042
1.03939
1.00907
1.03567
1.00624
1.0334
1.00435
1.03113
1.00214
1.02904
1.00237
1.02993
0.996696
1.02266
0.985055
1.03692
0.906903
1.51709
0.991405
1.04992
0.997591
1.03996
1.00805
1.0338
1.00913
1.03185
1.00902
1.03362
1.00957
1.0357
1.01061
1.03634
1.01139
1.03688
1.01128
1.03489
1.00702
1.03219
1.00426
1.03027
1.00201
1.02838
0.999866
1.03015
1.00108
1.03235
0.995981
1.02419
0.987586
1.03509
0.906791
1.51256
1.0589
0.99276
1.0498
1.00959
1.03932
1.01088
1.03441
1.01007
1.03447
1.00937
1.03658
1.01096
1.03844
1.01189
1.03924
1.01245
1.03959
1.01125
1.03801
1.00994
1.03462
1.00686
1.03241
1.00478
1.03021
1.00261
1.02863
1.00226
1.0298
0.996842
1.02315
0.985174
1.03803
0.900256
1.51321
0.992659
1.04721
0.998997
1.037
1.00742
1.0314
1.00861
1.02984
1.00805
1.03139
1.00866
1.03293
1.01024
1.03473
1.01222
1.03575
1.01267
1.0359
1.01199
1.03449
1.00802
1.03183
1.00487
1.03017
1.00281
1.0279
1.00024
1.02945
1.00121
1.03193
0.996312
1.02471
0.986531
1.04439
0.900461
1.50842
1.05716
0.994843
1.04773
1.00949
1.03744
1.01085
1.03341
1.01102
1.03288
1.00864
1.03359
1.00955
1.03531
1.01117
1.03701
1.01217
1.03856
1.01285
1.03891
1.01208
1.03709
1.0099
1.03372
1.00688
1.03171
1.00521
1.0295
1.00248
1.02846
1.00244
1.02977
0.996981
1.02374
0.981096
1.04385
0.905372
1.50883
0.995027
1.04614
1.00085
1.03497
1.00805
1.03091
1.01024
1.03064
1.00941
1.03053
1.00813
1.03012
1.00932
1.03224
1.01098
1.0337
1.0131
1.03492
1.01353
1.03538
1.01253
1.03434
1.00877
1.03176
1.00569
1.02985
1.00373
1.02789
1.00109
1.02903
1.00153
1.03162
0.996537
1.02469
0.985103
1.0406
0.905105
1.50433
1.0569
0.998486
1.04751
1.01099
1.03783
1.01336
1.03571
1.01468
1.03374
1.01007
1.03089
1.00998
1.03249
1.00969
1.03383
1.01195
1.03573
1.01262
1.03753
1.01276
1.03866
1.01244
1.03696
1.01008
1.03327
1.00702
1.03108
1.00521
1.02916
1.00266
1.0279
1.0023
1.02988
0.99683
1.02428
0.983084
1.04059
0.909548
1.50494
0.999096
1.0467
1.00408
1.03578
1.01137
1.03308
1.01436
1.03342
1.01266
1.03152
1.01079
1.0289
1.00922
1.02991
1.01001
1.0313
1.01184
1.03351
1.01392
1.03468
1.01343
1.03495
1.01288
1.03401
1.00946
1.03161
1.00627
1.02964
1.00413
1.02756
1.00141
1.02908
1.00152
1.0318
0.996589
1.02509
0.986756
1.04045
0.899213
1.50072
1.05807
1.00346
1.04889
1.01441
1.04071
1.01785
1.03937
1.01892
1.03695
1.015
1.03325
1.01138
1.03143
1.00964
1.03142
1.01038
1.03307
1.01222
1.03468
1.01278
1.03644
1.01379
1.03762
1.01285
1.03609
1.01054
1.03278
1.00716
1.03088
1.00528
1.02917
1.00244
1.02769
1.0019
1.03022
0.996689
1.02502
0.983532
1.0483
0.903898
1.50117
1.00312
1.04838
1.00883
1.03845
1.01563
1.03579
1.01817
1.0352
1.01638
1.03372
1.01369
1.031
1.01179
1.02844
1.00992
1.02883
1.0108
1.03082
1.01235
1.03309
1.01448
1.03407
1.01396
1.0348
1.01324
1.0339
1.01002
1.03125
1.00662
1.02951
1.0043
1.02773
1.00153
1.02906
1.0015
1.03185
0.996593
1.02522
0.982859
1.04524
0.904615
1.49654
1.05823
1.00742
1.04992
1.01847
1.04368
1.02115
1.04097
1.0204
1.03841
1.01902
1.03669
1.01565
1.03316
1.01087
1.03003
1.01038
1.03084
1.01069
1.03235
1.01237
1.03377
1.01344
1.0357
1.01428
1.03694
1.01329
1.03553
1.01073
1.03245
1.00728
1.03033
1.00527
1.02864
1.00259
1.02757
1.00158
1.03052
0.996587
1.0256
0.982031
1.04408
0.909289
1.49746
1.00669
1.04862
1.01224
1.04048
1.01841
1.03668
1.01923
1.0341
1.01811
1.03453
1.01676
1.03384
1.01472
1.03085
1.01232
1.02799
1.01086
1.02844
1.01141
1.03025
1.01306
1.03247
1.01496
1.03371
1.01406
1.03453
1.01366
1.03379
1.01036
1.03106
1.00691
1.02931
1.00465
1.02741
1.00163
1.02885
1.00139
1.03188
0.996668
1.02545
0.985664
1.04103
0.909304
1.49314
1.05759
1.01042
1.05069
1.02157
1.04439
1.02171
1.03998
1.02008
1.03894
1.01962
1.03759
1.01877
1.03604
1.01552
1.03315
1.0124
1.02939
1.0107
1.02957
1.01126
1.03127
1.01264
1.0331
1.01338
1.03494
1.01452
1.03629
1.01334
1.03529
1.01093
1.03214
1.00739
1.03008
1.0056
1.02839
1.0026
1.02766
1.00125
1.03082
0.996355
1.02617
0.983925
1.04026
0.912961
1.49432
1.00821
1.04803
1.01413
1.04108
1.01857
1.03506
1.01829
1.03216
1.01787
1.03291
1.01792
1.03446
1.01737
1.03392
1.01568
1.03049
1.01302
1.02806
1.01169
1.0277
1.01189
1.0297
1.01327
1.03221
1.01526
1.03337
1.01426
1.03446
1.01382
1.03369
1.01072
1.03083
1.00744
1.02901
1.00491
1.02731
1.00166
1.02887
1.00116
1.03198
0.99665
1.02587
0.986994
1.04077
0.90405
1.48983
1.05545
1.01147
1.04887
1.0219
1.04245
1.02053
1.03803
1.01924
1.03774
1.01823
1.03747
1.01956
1.03651
1.01885
1.03506
1.01607
1.03189
1.0132
1.0288
1.01144
1.02941
1.01149
1.03094
1.01284
1.03259
1.0137
1.03403
1.01512
1.03597
1.01328
1.03504
1.01095
1.03174
1.00747
1.02981
1.00561
1.02807
1.00239
1.02773
1.00103
1.03128
0.996331
1.02676
0.984478
1.04701
0.907625
1.49062
1.00901
1.04504
1.01357
1.03942
1.01657
1.03242
1.01691
1.03025
1.01679
1.0303
1.01843
1.03265
1.01852
1.03395
1.01828
1.03318
1.01668
1.03042
1.01354
1.0278
1.01183
1.02739
1.01227
1.02935
1.01348
1.0317
1.01535
1.03267
1.01463
1.03419
1.01373
1.03349
1.01115
1.0308
1.00763
1.02896
1.00511
1.02711
1.00175
1.02884
1.00087
1.03218
0.996425
1.02602
0.983426
1.0447
0.908671
1.48591
1.05249
1.01109
1.04572
1.02102
1.0397
1.0192
1.03608
1.01861
1.03569
1.01706
1.03589
1.01759
1.0358
1.01936
1.03552
1.01936
1.03501
1.01656
1.03231
1.01364
1.02856
1.01152
1.02872
1.01168
1.03025
1.01311
1.03221
1.01411
1.03344
1.01539
1.03556
1.01393
1.03458
1.01119
1.03164
1.00758
1.02972
1.00571
1.02815
1.00226
1.02785
1.00084
1.03136
0.996469
1.02708
0.983164
1.04319
0.911621
1.4869
1.00915
1.04231
1.01331
1.03715
1.01462
1.03054
1.01599
1.02908
1.01617
1.02866
1.01753
1.03008
1.01854
1.03263
1.0191
1.03369
1.01905
1.03287
1.0173
1.03011
1.01397
1.02785
1.01195
1.027
1.0123
1.0288
1.01353
1.0315
1.01548
1.03243
1.01486
1.03382
1.01428
1.0333
1.01136
1.03065
1.00774
1.02887
1.00529
1.02713
1.00176
1.02872
1.00077
1.03189
0.997101
1.02623
0.98562
1.04145
0.912247
1.48244
1.05037
1.01107
1.0433
1.01989
1.03741
1.01857
1.03464
1.01852
1.03451
1.01697
1.03454
1.01623
1.03454
1.01812
1.03476
1.01916
1.03492
1.01942
1.03422
1.01713
1.03178
1.01413
1.0283
1.01206
1.02852
1.0117
1.03016
1.01332
1.03181
1.01436
1.03318
1.01554
1.03467
1.01437
1.03422
1.01142
1.03131
1.00771
1.02948
1.00561
1.02808
1.00231
1.02779
1.00089
1.03118
0.99671
1.0273
0.984619
1.04268
0.906826
1.48365
1.00962
1.04044
1.01373
1.03523
1.01353
1.02966
1.0158
1.02902
1.01693
1.02836
1.01702
1.02855
1.01799
1.02976
1.01867
1.03234
1.01932
1.03341
1.0196
1.03283
1.01783
1.02981
1.01439
1.02754
1.0119
1.02692
1.01268
1.0285
1.01361
1.03106
1.01548
1.03217
1.01519
1.03356
1.01442
1.03295
1.01168
1.03035
1.00796
1.02867
1.0054
1.02693
1.0019
1.02848
1.00102
1.03173
0.997325
1.0264
0.986463
1.04727
0.907997
1.47911
1.04795
1.01136
1.04233
1.01934
1.03654
1.01898
1.03411
1.01951
1.03496
1.01792
1.03372
1.01673
1.03281
1.01682
1.03299
1.01832
1.03425
1.01993
1.03447
1.0196
1.03418
1.01774
1.03137
1.01431
1.02825
1.01215
1.02807
1.0118
1.02969
1.01343
1.03147
1.01453
1.03299
1.01566
1.03437
1.0147
1.0339
1.0116
1.03117
1.00779
1.02938
1.00574
1.02773
1.00241
1.02758
1.00129
1.03108
0.996766
1.02745
0.981925
1.04553
0.91157
1.48021
1.01029
1.03875
1.01334
1.03348
1.01364
1.02972
1.01649
1.02998
1.01871
1.02921
1.01813
1.02847
1.01755
1.0282
1.01846
1.02988
1.01893
1.03213
1.01972
1.03313
1.02003
1.03245
1.01831
1.02967
1.01482
1.02744
1.01236
1.02656
1.01282
1.02824
1.01373
1.03078
1.01544
1.032
1.01539
1.0334
1.01464
1.03273
1.01183
1.03028
1.00804
1.02851
1.00568
1.02712
1.00198
1.02787
1.00147
1.03181
0.997516
1.02659
0.985314
1.0438
0.912268
1.47556
1.04664
1.0126
1.04244
1.01932
1.03677
1.01999
1.03435
1.02107
1.0358
1.01947
1.03462
1.01805
1.03207
1.01732
1.03182
1.01746
1.03259
1.01848
1.03348
1.02011
1.03401
1.02018
1.03375
1.01818
1.03108
1.01467
1.02797
1.01235
1.02792
1.01196
1.02928
1.01357
1.03115
1.0146
1.03274
1.01564
1.03398
1.01482
1.03373
1.01172
1.03095
1.00802
1.02912
1.00579
1.02767
1.00272
1.0271
1.00129
1.03118
0.996868
1.02761
0.984629
1.04239
0.914788
1.47663
1.01114
1.03836
1.01468
1.03414
1.01494
1.03047
1.01785
1.03126
1.02039
1.03039
1.01996
1.02888
1.01903
1.02872
1.01836
1.02825
1.01842
1.02974
1.01932
1.03146
1.02006
1.03261
1.02053
1.0323
1.01864
1.02971
1.01471
1.02726
1.01259
1.02631
1.01294
1.02783
1.01373
1.03056
1.01531
1.03179
1.01557
1.03298
1.01467
1.03256
1.01203
1.0301
1.00823
1.02838
1.0058
1.02704
1.00233
1.02794
1.00143
1.03176
0.99766
1.02673
0.987284
1.04104
0.915483
1.47182
1.04586
1.01349
1.04181
1.0197
1.03717
1.02112
1.03493
1.02236
1.03622
1.02066
1.03528
1.01952
1.03378
1.0183
1.03144
1.01769
1.03073
1.01778
1.03176
1.01879
1.03305
1.0206
1.03353
1.02035
1.03308
1.01845
1.03082
1.01529
1.02772
1.01249
1.02765
1.01209
1.02899
1.01367
1.03082
1.01476
1.03247
1.0157
1.034
1.0149
1.03345
1.01184
1.03074
1.00815
1.02898
1.00588
1.02749
1.00266
1.02712
1.0013
1.03115
0.996984
1.02773
0.985997
1.03946
0.918
1.47288
1.01265
1.03845
1.01614
1.03417
1.01636
1.0312
1.01926
1.03179
1.02094
1.03092
1.02132
1.03064
1.02047
1.0293
1.01939
1.02853
1.01882
1.02834
1.01842
1.02954
1.01947
1.03097
1.02061
1.03252
1.02088
1.03228
1.01908
1.02977
1.01503
1.02722
1.01259
1.02623
1.01289
1.02768
1.01383
1.03032
1.01534
1.03146
1.01565
1.03266
1.01489
1.03236
1.0122
1.02993
1.00841
1.02823
1.00604
1.02709
1.00248
1.0278
1.00137
1.03153
0.997822
1.02685
0.987916
1.03864
0.918528
1.46845
1.04568
1.01516
1.04244
1.02085
1.03787
1.02227
1.0354
1.02277
1.03565
1.02105
1.03555
1.02077
1.03461
1.01992
1.03267
1.01887
1.03103
1.01804
1.03048
1.01807
1.03129
1.01925
1.03258
1.02042
1.03312
1.0207
1.03275
1.01864
1.03066
1.01546
1.02759
1.01271
1.02745
1.01231
1.02873
1.01371
1.03045
1.01479
1.0322
1.01568
1.03383
1.01488
1.03327
1.01207
1.03062
1.00825
1.02867
1.00594
1.02737
1.00261
1.02707
1.00145
1.03123
0.997158
1.02787
0.986549
1.039
0.914936
1.46963
1.01411
1.03882
1.0172
1.03476
1.01803
1.03169
1.02014
1.03116
1.02056
1.03084
1.0215
1.03066
1.02165
1.03047
1.02133
1.02952
1.02014
1.02856
1.01889
1.02832
1.01881
1.02948
1.01968
1.03104
1.02079
1.03257
1.02097
1.03239
1.01926
1.02976
1.01522
1.02701
1.01274
1.026
1.01289
1.0275
1.01388
1.03008
1.01546
1.03138
1.01565
1.03257
1.0149
1.03223
1.01223
1.02974
1.00861
1.02812
1.00615
1.02703
1.00267
1.02767
1.00136
1.03144
0.997932
1.02712
0.988317
1.04323
0.91526
1.46501
1.04514
1.01606
1.04222
1.02176
1.0383
1.02303
1.03531
1.02228
1.03459
1.02102
1.03464
1.02114
1.03487
1.02106
1.03378
1.02034
1.03187
1.01908
1.03057
1.01848
1.03016
1.01823
1.03056
1.01953
1.03211
1.02085
1.0328
1.021
1.03255
1.01879
1.03024
1.01569
1.02759
1.01277
1.02723
1.0124
1.02846
1.0137
1.03004
1.01485
1.03193
1.01564
1.03353
1.015
1.03308
1.01217
1.03048
1.0083
1.02856
1.006
1.02722
1.00267
1.02702
1.00151
1.03116
0.997376
1.02784
0.984552
1.04198
0.918023
1.4661
1.01578
1.03921
1.01895
1.03539
1.01895
1.03144
1.02022
1.02975
1.01982
1.02983
1.0208
1.03053
1.02194
1.0305
1.02213
1.03074
1.02155
1.02979
1.02063
1.02852
1.01904
1.02814
1.01905
1.02927
1.01978
1.03094
1.02079
1.03239
1.02097
1.03223
1.01947
1.03
1.01542
1.02683
1.01283
1.02598
1.01285
1.02732
1.01403
1.02978
1.01544
1.03116
1.01561
1.03236
1.01491
1.03209
1.01231
1.02961
1.00871
1.02791
1.00625
1.02697
1.00275
1.02756
1.00132
1.03145
0.998086
1.02717
0.987298
1.04092
0.918222
1.4616
1.04531
1.0177
1.04273
1.02305
1.03849
1.02334
1.03463
1.02126
1.03342
1.02053
1.0332
1.02114
1.03323
1.02171
1.03388
1.02158
1.03268
1.02094
1.03164
1.01964
1.03037
1.01874
1.02964
1.01852
1.02998
1.01976
1.03187
1.02098
1.03271
1.02115
1.03267
1.01901
1.02999
1.01586
1.02754
1.01287
1.02701
1.01245
1.02814
1.01376
1.02978
1.01492
1.03178
1.01563
1.03333
1.01508
1.03284
1.01221
1.03034
1.00831
1.0284
1.00607
1.02709
1.00281
1.02694
1.00154
1.03107
0.997753
1.02762
0.985708
1.03941
0.921288
1.46256
1.01705
1.03936
1.01979
1.03522
1.01938
1.03074
1.01971
1.02816
1.01918
1.02836
1.01974
1.02909
1.02135
1.02959
1.02216
1.03049
1.02252
1.03086
1.02183
1.0297
1.02072
1.02841
1.01934
1.02791
1.01935
1.0293
1.01981
1.03084
1.02092
1.0322
1.02116
1.03203
1.01957
1.03002
1.01559
1.02673
1.01292
1.02587
1.01278
1.02711
1.01408
1.02954
1.01527
1.03101
1.01552
1.03224
1.01498
1.03193
1.01231
1.02946
1.00875
1.02768
1.00638
1.02687
1.00287
1.02735
1.0014
1.03141
0.998455
1.02706
0.988324
1.04009
0.915248
1.45823
1.04488
1.01855
1.04207
1.02359
1.03807
1.023
1.03337
1.02007
1.03228
1.01972
1.03175
1.02077
1.03213
1.02117
1.03258
1.02226
1.03339
1.02198
1.03261
1.02129
1.03145
1.01991
1.03008
1.01892
1.02931
1.01881
1.02963
1.01998
1.03157
1.02112
1.03251
1.02124
1.03242
1.01925
1.02997
1.01597
1.0275
1.01293
1.02673
1.01265
1.02793
1.01375
1.02954
1.01508
1.0316
1.01566
1.0331
1.01504
1.03276
1.01236
1.03027
1.00848
1.02836
1.00614
1.02691
1.003
1.02678
1.0016
1.03086
0.998145
1.02763
0.986609
1.04369
0.917784
1.45928
1.01802
1.03912
1.02088
1.03505
1.01965
1.02965
1.01882
1.02673
1.01877
1.02694
1.019
1.02809
1.01994
1.02878
1.02188
1.02967
1.02242
1.03012
1.02297
1.03077
1.02213
1.0297
1.02084
1.02829
1.01958
1.02783
1.01946
1.0292
1.01991
1.03069
1.02106
1.03205
1.02133
1.03215
1.01963
1.02994
1.01568
1.0266
1.01302
1.02577
1.01278
1.02692
1.01402
1.02931
1.01528
1.03089
1.01545
1.03214
1.0149
1.0317
1.01235
1.02935
1.00884
1.02751
1.00654
1.02671
1.00302
1.02716
1.00142
1.03119
0.998825
1.02708
0.986421
1.04272
0.918613
1.45501
1.04428
1.01911
1.04136
1.02385
1.03723
1.02222
1.0319
1.01924
1.03153
1.01908
1.03073
1.02014
1.03066
1.02081
1.03136
1.02159
1.03189
1.02253
1.03256
1.02249
1.0321
1.02175
1.03126
1.02032
1.02971
1.01948
1.029
1.01907
1.0295
1.01995
1.03135
1.02118
1.03236
1.02138
1.03227
1.01944
1.02993
1.01613
1.0273
1.01295
1.02657
1.01267
1.02766
1.01382
1.02934
1.01505
1.0314
1.0156
1.03286
1.01522
1.03245
1.01249
1.03011
1.00852
1.02815
1.00628
1.02673
1.00316
1.0266
1.00168
1.0306
0.998457
1.02751
0.98571
1.04113
0.920898
1.45597
1.01871
1.03853
1.02092
1.03422
1.01924
1.02829
1.01803
1.02587
1.01875
1.02604
1.01902
1.02694
1.01901
1.02726
1.02062
1.02873
1.02197
1.02975
1.02307
1.03002
1.02312
1.03039
1.02237
1.0296
1.02115
1.02826
1.01965
1.02779
1.01957
1.02905
1.02003
1.03059
1.02117
1.03191
1.02137
1.03194
1.01977
1.02991
1.01581
1.02662
1.0131
1.0257
1.0128
1.02671
1.01404
1.0291
1.01523
1.03075
1.0153
1.03201
1.01494
1.03149
1.01244
1.02927
1.00896
1.02734
1.0067
1.02656
1.00306
1.02702
1.00156
1.03094
0.999271
1.02697
0.988059
1.04005
0.921862
1.45158
1.04359
1.01977
1.04089
1.02371
1.03602
1.02126
1.03074
1.01893
1.03096
1.0186
1.03032
1.01955
1.02978
1.02024
1.03006
1.02091
1.03041
1.02203
1.03145
1.02248
1.03209
1.0229
1.03206
1.02205
1.03104
1.02062
1.02946
1.01979
1.0287
1.01918
1.02934
1.01998
1.03116
1.0212
1.03226
1.0215
1.03208
1.01951
1.02986
1.01622
1.02718
1.01306
1.02639
1.01271
1.02742
1.0138
1.02917
1.01499
1.03118
1.01564
1.0326
1.01525
1.03234
1.01252
1.02992
1.00861
1.02792
1.00637
1.02654
1.0033
1.02651
1.00173
1.03014
0.998878
1.02726
0.987089
1.03805
0.923932
1.45224
1.01958
1.03798
1.02137
1.03351
1.01877
1.02711
1.01764
1.0255
1.01886
1.02553
1.0194
1.02664
1.01876
1.02702
1.01962
1.02772
1.02081
1.02875
1.02178
1.02954
1.02346
1.03039
1.0232
1.03024
1.02247
1.02958
1.02132
1.02834
1.01981
1.02789
1.01961
1.02903
1.02008
1.03046
1.02128
1.03176
1.02145
1.03196
1.01989
1.02978
1.01598
1.02659
1.01317
1.02552
1.01283
1.02654
1.01398
1.02897
1.0152
1.0306
1.01536
1.03184
1.01501
1.03136
1.01257
1.02907
1.00913
1.02719
1.00683
1.02636
1.00311
1.02677
1.00177
1.03064
0.999711
1.02684
0.989203
1.03745
0.924838
1.44804
1.04258
1.01979
1.039
1.02307
1.0347
1.02054
1.02994
1.019
1.03071
1.01885
1.03065
1.01905
1.02904
1.01989
1.02849
1.02045
1.02881
1.02121
1.02934
1.02266
1.03093
1.0228
1.03151
1.02333
1.03181
1.02233
1.03082
1.02073
1.02933
1.01992
1.02859
1.01923
1.02927
1.02001
1.03097
1.02129
1.03213
1.02152
1.03209
1.01961
1.0297
1.01633
1.02698
1.01311
1.02619
1.01272
1.02727
1.0138
1.02896
1.01494
1.03095
1.01561
1.03241
1.01523
1.03206
1.01262
1.02972
1.00868
1.02773
1.00643
1.02637
1.0034
1.02635
1.00161
1.02975
0.999137
1.02704
0.987853
1.03759
0.921071
1.44878
1.01955
1.03676
1.02109
1.03257
1.01824
1.02614
1.01767
1.02553
1.01927
1.0257
1.02026
1.02641
1.01952
1.02711
1.01926
1.02629
1.02005
1.02755
1.0212
1.02854
1.02174
1.0294
1.02352
1.03038
1.02342
1.03032
1.0226
1.02944
1.02141
1.02837
1.01988
1.0279
1.01968
1.02895
1.02013
1.03037
1.02134
1.03161
1.02155
1.03187
1.02005
1.02986
1.01611
1.02663
1.01326
1.02545
1.01285
1.02639
1.01395
1.02884
1.01516
1.03048
1.01536
1.03171
1.01507
1.03122
1.01272
1.02897
1.00918
1.02708
1.00692
1.02623
1.00323
1.02663
1.0022
1.03054
1.00005
1.02679
0.989606
1.04194
0.921855
1.44465
1.04183
1.01972
1.03802
1.02285
1.03364
1.02025
1.02955
1.01939
1.03078
1.01957
1.03111
1.01914
1.02939
1.01914
1.02717
1.02055
1.02811
1.02097
1.02775
1.02195
1.02898
1.02316
1.03069
1.02319
1.03112
1.02347
1.03147
1.02254
1.03078
1.02105
1.02929
1.02
1.02848
1.0192
1.02916
1.02008
1.03078
1.02124
1.03208
1.02155
1.03205
1.01969
1.02972
1.01639
1.02692
1.01313
1.02605
1.01268
1.02708
1.01376
1.02884
1.01493
1.03071
1.01561
1.0322
1.0152
1.03188
1.01265
1.02962
1.00874
1.02751
1.00648
1.02629
1.00345
1.02621
1.00153
1.02954
0.999382
1.02699
0.985764
1.04021
0.924541
1.44491
1.01958
1.03658
1.02147
1.0317
1.01799
1.02561
1.01806
1.02583
1.0199
1.02627
1.021
1.02653
1.02095
1.02607
1.02036
1.02602
1.01968
1.02663
1.02048
1.02695
1.02135
1.02849
1.02202
1.02931
1.02347
1.03031
1.02355
1.03046
1.02265
1.02954
1.02147
1.02832
1.01997
1.02787
1.01976
1.02878
1.02019
1.03021
1.02143
1.03158
1.02159
1.03178
1.02014
1.02979
1.01618
1.02661
1.01333
1.02535
1.01287
1.0262
1.01391
1.02868
1.01515
1.03028
1.01538
1.03144
1.01495
1.03117
1.01277
1.02888
1.00925
1.02689
1.00698
1.02605
1.00341
1.02649
1.00222
1.03042
1.00024
1.02679
0.988567
1.03906
0.925272
1.44118
1.04089
1.0197
1.03725
1.02248
1.03278
1.02022
1.02953
1.02002
1.03113
1.02061
1.03188
1.02014
1.02998
1.01993
1.0284
1.02036
1.02773
1.02112
1.02739
1.02156
1.02795
1.02205
1.0289
1.02309
1.03022
1.02345
1.03065
1.02368
1.03111
1.0228
1.03061
1.02122
1.02917
1.02012
1.02833
1.01931
1.02904
1.02008
1.03077
1.02126
1.03191
1.02161
1.03196
1.01972
1.02972
1.01653
1.0268
1.01315
1.0259
1.01266
1.02698
1.01374
1.02874
1.01489
1.03052
1.01565
1.03207
1.01539
1.03169
1.01268
1.02943
1.00877
1.02731
1.00662
1.02611
1.00355
1.026
1.00167
1.02932
0.999627
1.02687
0.987459
1.03744
0.927374
1.44025
1.02021
1.03594
1.02097
1.03076
1.01789
1.02547
1.01876
1.02626
1.02069
1.0271
1.0219
1.02727
1.02209
1.02697
1.02117
1.02614
1.02055
1.02589
1.01997
1.02641
1.02055
1.02694
1.02152
1.0283
1.02228
1.02949
1.02365
1.0304
1.02367
1.03033
1.02285
1.02954
1.02163
1.02828
1.02007
1.0279
1.01981
1.02871
1.02029
1.03012
1.02147
1.03158
1.02159
1.03177
1.0202
1.02969
1.01633
1.0266
1.01334
1.02527
1.01286
1.02609
1.01386
1.02849
1.01515
1.0301
1.01536
1.03132
1.01499
1.03104
1.01276
1.02881
1.00929
1.02673
1.00708
1.02582
1.00358
1.02627
1.0023
1.0301
1.00037
1.02671
0.989656
1.03828
0.922169
1.43674
1.03992
1.01976
1.03631
1.02211
1.03214
1.02053
1.02979
1.02074
1.03163
1.02178
1.03251
1.02143
1.03071
1.02017
1.02815
1.02106
1.02784
1.02086
1.0274
1.02133
1.02707
1.02158
1.02762
1.02219
1.02872
1.02323
1.02976
1.02359
1.03054
1.02385
1.03091
1.02303
1.03045
1.02129
1.02914
1.02019
1.02828
1.01932
1.02897
1.02012
1.03061
1.02127
1.03181
1.02161
1.03193
1.01981
1.02963
1.01659
1.02675
1.0132
1.0258
1.01264
1.02682
1.01374
1.02855
1.01491
1.03033
1.0156
1.03188
1.01541
1.03153
1.01283
1.02932
1.00887
1.0271
1.00668
1.02596
1.00371
1.02582
1.00178
1.02923
0.999795
1.02677
0.988129
1.04109
0.925951
1.43676
1.0205
1.03522
1.02122
1.03042
1.01855
1.02566
1.01961
1.0268
1.02169
1.02814
1.02299
1.02816
1.02283
1.02711
1.02276
1.02663
1.02152
1.02623
1.02063
1.02578
1.02024
1.02617
1.02066
1.02676
1.02157
1.02812
1.02239
1.02941
1.02364
1.03033
1.02375
1.03028
1.02302
1.02958
1.02174
1.02827
1.0201
1.02782
1.01988
1.02861
1.0203
1.03009
1.02146
1.03156
1.02159
1.03172
1.0203
1.02964
1.01643
1.02657
1.01341
1.02514
1.01284
1.02595
1.01385
1.02837
1.01511
1.02992
1.01539
1.03111
1.015
1.03091
1.01282
1.02871
1.00936
1.02661
1.00721
1.02566
1.00375
1.02604
1.0024
1.02987
1.00051
1.02676
0.987889
1.04002
0.927037
1.4335
1.03962
1.0201
1.03576
1.02202
1.03196
1.02107
1.03023
1.02148
1.03222
1.02294
1.03315
1.02293
1.03179
1.02191
1.02949
1.02177
1.0285
1.02121
1.0271
1.02113
1.02703
1.02158
1.02702
1.02177
1.02763
1.02223
1.02849
1.02333
1.02971
1.02374
1.03041
1.02401
1.03088
1.02314
1.03041
1.02141
1.02907
1.0203
1.02829
1.01938
1.02891
1.02015
1.03051
1.0213
1.03173
1.02166
1.03189
1.01987
1.02955
1.01666
1.02667
1.01318
1.02566
1.01262
1.02662
1.01375
1.0284
1.01491
1.03013
1.01563
1.03165
1.01548
1.03135
1.01288
1.02915
1.00894
1.0269
1.0068
1.02581
1.0038
1.02555
1.00183
1.02922
0.999846
1.02677
0.987335
1.0385
0.928872
1.43336
1.0208
1.03489
1.02179
1.03031
1.01947
1.02578
1.0205
1.02736
1.02263
1.02893
1.02369
1.02916
1.02386
1.02805
1.02387
1.0275
1.02283
1.02649
1.02156
1.02638
1.02096
1.02582
1.0203
1.0261
1.02079
1.0267
1.02156
1.0279
1.02246
1.02925
1.02367
1.0303
1.02384
1.03019
1.02306
1.02955
1.02181
1.02832
1.02012
1.0278
1.0199
1.02852
1.0203
1.03004
1.02147
1.03144
1.02164
1.03169
1.02039
1.02968
1.01652
1.02654
1.01343
1.02508
1.01284
1.02576
1.01378
1.02822
1.01511
1.02972
1.01543
1.03099
1.01507
1.03082
1.0129
1.02862
1.00939
1.0265
1.00725
1.02553
1.00396
1.02579
1.00232
1.02979
1.00057
1.0267
0.98936
1.03787
0.930058
1.43001
1.03913
1.02063
1.03556
1.02208
1.03214
1.02191
1.03071
1.02218
1.03281
1.02403
1.03368
1.024
1.03243
1.02332
1.03054
1.02306
1.02928
1.02213
1.02797
1.02193
1.02698
1.02125
1.02657
1.02163
1.02686
1.02181
1.02733
1.02237
1.02847
1.02337
1.02965
1.02387
1.0304
1.02397
1.03079
1.02319
1.03033
1.0215
1.029
1.02036
1.02825
1.01942
1.02885
1.02016
1.03042
1.02128
1.0317
1.02161
1.03183
1.01993
1.02952
1.01671
1.02661
1.01325
1.02557
1.01261
1.02656
1.01375
1.02819
1.01494
1.02985
1.01563
1.03146
1.01547
1.03117
1.01294
1.02895
1.00903
1.02667
1.00692
1.02562
1.0039
1.02537
1.00175
1.02916
0.999906
1.02673
0.98862
1.03616
0.931682
1.42982
1.02129
1.03468
1.02223
1.03045
1.0201
1.0261
1.02133
1.02787
1.02345
1.02951
1.02451
1.02985
1.02485
1.02956
1.02468
1.02825
1.02367
1.02735
1.02278
1.02687
1.02195
1.02636
1.02121
1.02595
1.02046
1.02607
1.02107
1.02665
1.0217
1.02782
1.02246
1.02908
1.02362
1.03025
1.02389
1.03023
1.02316
1.02947
1.02187
1.02836
1.02018
1.02776
1.01991
1.02843
1.02033
1.02998
1.02149
1.03141
1.02171
1.03165
1.02048
1.02966
1.0166
1.02651
1.01348
1.02498
1.01287
1.02564
1.01381
1.02804
1.01514
1.02946
1.01545
1.03083
1.01513
1.03068
1.013
1.02851
1.00944
1.02638
1.00731
1.0254
1.00407
1.02562
1.00231
1.02955
1.00059
1.02673
0.990352
1.03561
0.932862
1.42605
1.03848
1.02097
1.03509
1.02239
1.03253
1.02254
1.03121
1.02281
1.03318
1.02462
1.03361
1.02513
1.03263
1.02417
1.03093
1.02403
1.03014
1.02388
1.02867
1.02281
1.02761
1.02205
1.02691
1.02132
1.02646
1.02164
1.0267
1.02176
1.0273
1.02241
1.02833
1.02342
1.0295
1.02386
1.03036
1.02401
1.03078
1.02327
1.03025
1.02157
1.02894
1.02037
1.02819
1.01949
1.02879
1.02015
1.0303
1.02133
1.03161
1.02156
1.0318
1.02
1.02948
1.01676
1.02657
1.01328
1.02547
1.0126
1.02636
1.01377
1.02799
1.01502
1.02968
1.01561
1.03127
1.01546
1.03094
1.01298
1.02874
1.00913
1.02648
1.00703
1.02543
1.00397
1.02512
1.0017
1.0291
0.999927
1.02681
0.9895
1.03404
0.93389
1.42443
1.02168
1.0342
1.02274
1.03051
1.02084
1.02653
1.0221
1.02823
1.02393
1.02962
1.02482
1.03038
1.02548
1.02969
1.02531
1.02908
1.02523
1.02837
1.02394
1.02785
1.02322
1.02688
1.02212
1.02611
1.02142
1.02582
1.02085
1.02596
1.02101
1.02654
1.02174
1.02773
1.02248
1.02912
1.02364
1.03019
1.02394
1.03024
1.02327
1.02944
1.02196
1.02836
1.02026
1.02775
1.0199
1.02841
1.02037
1.02996
1.02148
1.03136
1.02177
1.03158
1.02049
1.02958
1.01669
1.02644
1.01353
1.02486
1.01287
1.02555
1.01381
1.02786
1.01514
1.02928
1.01552
1.03063
1.01515
1.03057
1.01312
1.02829
1.00951
1.02625
1.00741
1.02525
1.00415
1.02542
1.00228
1.02942
1.00058
1.02683
0.990899
1.03418
0.936319
1.4218
1.03793
1.02195
1.03503
1.02294
1.03279
1.02312
1.03164
1.02322
1.03314
1.0248
1.03341
1.02555
1.03258
1.02516
1.0321
1.02557
1.03114
1.02483
1.02936
1.02409
1.02841
1.023
1.02747
1.02221
1.02676
1.02153
1.0263
1.02156
1.02663
1.02171
1.02716
1.02236
1.02819
1.02342
1.02943
1.02388
1.0303
1.02399
1.03073
1.02328
1.03025
1.02167
1.02891
1.02041
1.02817
1.01953
1.02873
1.02013
1.03017
1.02136
1.03155
1.02162
1.03173
1.02012
1.02949
1.01681
1.02656
1.01329
1.02535
1.01263
1.02618
1.01379
1.0278
1.01503
1.02947
1.01561
1.03111
1.01552
1.03079
1.0131
1.02864
1.0092
1.02626
1.0071