/*--------------------------------*- C++ -*----------------------------------*\
| =========                 |                                                 |
| \\      /  F ield         | OpenFOAM: The Open Source CFD Toolbox           |
|  \\    /   O peration     | Version:  2206                                  |
|   \\  /    A nd           | Website:  www.openfoam.com                      |
|    \\/     M anipulation  |                                                 |
\*---------------------------------------------------------------------------*/
FoamFile
{
    version     2.0;
    format      ascii;
    arch        "LSB;label=32;scalar=64";
    class       volScalarField;
    location    "200";
    object      rhoPrime2Mean;
}
// * * * * * * * * * * * * * * * * * * * * * * * * * * * * * * * * * * * * * //

dimensions      [2 -6 0 0 0 0 0];

internalField   nonuniform List<scalar> 
93840
(
0.115161
0.00895668
0.185108
0.00176519
0.0126991
0.187958
0.00837894
0.00198136
0.00512937
0.10183
0.000161888
0.00265436
0.00307398
0.00227503
0.084232
4.82629e-05
0.00300876
0.00158247
0.00217757
0.00432984
0.100091
0.000109382
0.00138887
0.00282445
0.00869738
0.00148731
0.0105325
0.129248
0.00010253
0.00132609
0.000994497
0.000602405
0.00372438
0.00151278
0.0124863
0.160091
0.000115555
0.00107684
0.00155885
0.00105163
0.00140705
0.00632628
0.00138381
0.0124267
0.157687
0.000166656
0.000514992
0.000956468
0.000714067
0.000833675
0.00186359
0.00236694
0.00116892
0.0121679
0.189302
8.949e-05
0.000600617
0.000819236
0.000593744
0.00168257
0.00232129
0.00310557
0.00223629
0.00199023
0.0134733
0.168626
0.000111496
0.000532121
0.000794309
0.000591105
0.000947085
0.00121012
0.00149933
0.00154296
0.00111209
0.00172425
0.013275
0.186603
7.39239e-05
0.000475003
0.000872309
0.000573505
0.000733722
0.00183189
0.00133555
0.00157285
0.00138454
0.00207385
0.00247827
0.0135018
0.173588
9.04873e-05
0.000413264
0.00084915
0.000713131
0.000798529
0.000612958
0.00107479
0.00116552
0.000702871
0.00158888
0.001085
0.0013694
0.0133823
0.192764
5.60132e-05
0.000304737
0.000924316
0.000703307
0.000579524
0.00138338
0.000665404
0.00143229
0.000842502
0.00145565
0.00144142
0.00176641
0.00238468
0.013547
0.175881
7.93324e-05
0.000376735
0.000865647
0.000754273
0.000727781
0.000488873
0.000978456
0.0004741
0.000599147
0.00106848
0.000687887
0.00150181
0.00128708
0.00152484
0.0133103
0.196418
5.7895e-05
0.000254641
0.000953443
0.000773397
0.000577431
0.00125544
0.000302545
0.00100012
0.000554718
0.00116185
0.000866599
0.00140116
0.00150211
0.0016554
0.00221528
0.0134985
0.178541
8.81569e-05
0.000333646
0.000922119
0.000740919
0.000674902
0.000466692
0.000829758
0.000288304
0.000606522
0.000435198
0.000515973
0.00096568
0.000779223
0.00145768
0.00137042
0.00153567
0.0131476
0.199113
6.94963e-05
0.00026665
0.000986286
0.000734969
0.000494739
0.00121154
0.000213235
0.000877451
0.000321763
0.00084486
0.000513222
0.00114313
0.000773718
0.00137056
0.00148697
0.00163608
0.00211072
0.0133868
0.180378
0.000105022
0.000310532
0.000929148
0.000687188
0.000585235
0.000464586
0.000725612
0.000216792
0.000568191
0.000268174
0.000524603
0.000420817
0.000524816
0.000929744
0.000829867
0.00142862
0.00136784
0.00155033
0.012931
0.200175
9.67341e-05
0.00032095
0.000991839
0.000742131
0.000460653
0.00110418
0.00018607
0.000877975
0.000244278
0.000832932
0.000328077
0.000755136
0.000501555
0.00107738
0.000796628
0.00133382
0.00143053
0.00152047
0.00203746
0.0132452
0.181859
0.000126871
0.000292214
0.000887279
0.000693735
0.000459361
0.000419152
0.000662559
0.000179925
0.000530474
0.00020677
0.000478549
0.000266569
0.000455268
0.000393606
0.000513985
0.000861467
0.000850341
0.00138175
0.0013691
0.00154436
0.0127203
0.19986
0.00015407
0.000355644
0.00101194
0.000704433
0.000416414
0.00103829
0.000167974
0.000828427
0.000212178
0.000914957
0.000225667
0.000750799
0.000338355
0.000733207
0.00051582
0.00102044
0.000694258
0.00128895
0.00145466
0.00143057
0.0019693
0.0131187
0.183564
0.00013122
0.000310042
0.000897052
0.000702736
0.000395133
0.000428224
0.000546161
0.00018011
0.000500911
0.000180241
0.000441602
0.000193145
0.000420045
0.000262683
0.000432028
0.000376131
0.00054888
0.000831543
0.000865309
0.00132423
0.00134086
0.00152685
0.0124875
0.198595
0.000168091
0.000431334
0.0010345
0.000657906
0.000383436
0.000963839
0.000158748
0.00072888
0.000135115
0.000834207
0.000159622
0.000685803
0.000242397
0.000698408
0.000310764
0.00053658
0.000434955
0.000861157
0.000646769
0.001186
0.00143967
0.00140047
0.00189877
0.0125944
0.197501
0.000126533
0.000343326
0.000809427
0.000709016
0.000375891
0.000392878
0.000468941
0.000191834
0.000452099
0.00018297
0.000387184
0.000153556
0.000355406
0.000196773
0.000393107
0.000253151
0.000435647
0.000381784
0.000605017
0.00077892
0.000920863
0.00130939
0.00132757
0.00150755
0.0114048
0.203421
0.000172168
0.000435417
0.00112249
0.000674638
0.000401075
0.000911005
0.000158848
0.000639711
0.000111985
0.000677146
0.000125593
0.000581434
0.00016404
0.000665315
0.000227657
0.000568149
0.000308998
0.000550659
0.00039743
0.000723849
0.000635073
0.00115465
0.00144063
0.00137066
0.00183873
0.0135794
0.195533
0.000129731
0.000367863
0.000774134
0.00076697
0.000328418
0.000435197
0.000416794
0.000213777
0.000392355
0.000174187
0.000427277
0.000165441
0.000364802
0.000150036
0.000347577
0.000208201
0.000400908
0.000262568
0.000417316
0.000378026
0.000687779
0.000770837
0.000925148
0.0012939
0.0013002
0.00162149
0.0124547
0.19665
0.000162651
0.000427649
0.00116871
0.000590249
0.00041848
0.000821307
0.000166593
0.000553554
0.00010254
0.000601414
0.000101031
0.000510672
0.000119194
0.000546295
0.000158279
0.000550302
0.000208831
0.000509384
0.000292655
0.000563938
0.000390413
0.000714981
0.000658478
0.00112223
0.00143727
0.00130167
0.00186145
0.0126231
0.191409
0.000130393
0.000365972
0.000717503
0.000784328
0.000311693
0.00046867
0.000429978
0.000262103
0.000346
0.000191881
0.000366917
0.000170593
0.000370384
0.000160542
0.000371734
0.000156258
0.0003578
0.000202428
0.000413135
0.000267168
0.000409807
0.000392883
0.000651792
0.000799619
0.000943627
0.00128793
0.00132702
0.00147191
0.0116862
0.194229
0.000145251
0.000408209
0.0012151
0.000519112
0.000444943
0.000817107
0.00018327
0.000475909
0.000130849
0.000468122
9.43235e-05
0.000441039
0.000117874
0.000469207
0.000109342
0.00050164
0.000141367
0.000521803
0.000180684
0.000435215
0.00026299
0.000550362
0.00038686
0.000729735
0.000670578
0.00101902
0.00141584
0.00129791
0.00174316
0.0119852
0.189621
0.00014669
0.000323177
0.000658121
0.000796226
0.000280084
0.000485876
0.000383798
0.000278559
0.000332625
0.000220687
0.00034028
0.000181711
0.000350969
0.000156862
0.000358514
0.00014671
0.000363787
0.000161544
0.00035424
0.000187277
0.000390232
0.000275194
0.000402872
0.0004119
0.000634115
0.000815869
0.00102369
0.00123933
0.00134381
0.00148252
0.011085
0.192443
0.000141187
0.000404199
0.00130518
0.000470929
0.000467402
0.000750255
0.000208802
0.000430038
0.000155123
0.000369012
0.000120078
0.000346311
0.000117567
0.00041549
0.000116489
0.000448343
0.000104369
0.000457661
0.000134266
0.000478794
0.000173193
0.00048109
0.000257978
0.000516737
0.000388036
0.000708216
0.000690715
0.000994444
0.00138821
0.00129571
0.00168575
0.0114317
0.18855
0.000157283
0.000320131
0.000629049
0.000767187
0.000267326
0.000492332
0.000328067
0.000287774
0.000326241
0.000218617
0.000300802
0.00019001
0.00030076
0.000152978
0.000312735
0.000135611
0.000320945
0.000135564
0.000346575
0.000149917
0.000349767
0.000178492
0.000381426
0.000280167
0.000388168
0.000412734
0.000620442
0.000814802
0.00102862
0.00121044
0.00136101
0.00144094
0.0105732
0.191641
0.000138918
0.000376155
0.00132398
0.000442233
0.000461746
0.000709732
0.000216937
0.000408408
0.000173831
0.000339936
0.000135996
0.000331709
0.000119211
0.000335108
0.000124342
0.000376491
0.000114872
0.00040464
0.000116871
0.000416386
0.000135735
0.000452516
0.000166882
0.000463551
0.000246072
0.000519388
0.000389167
0.000706741
0.000677772
0.00102885
0.00137606
0.00135979
0.00158492
0.0126752
0.188012
0.000161249
0.000347301
0.00058338
0.000761124
0.000257103
0.00047845
0.000290982
0.000321957
0.000283812
0.000236912
0.000308013
0.000186165
0.000258829
0.000159764
0.000263921
0.000135437
0.000290478
0.00012424
0.000308243
0.000126389
0.000331382
0.000145238
0.000343691
0.000170859
0.000374196
0.000271385
0.000379277
0.000414219
0.000617777
0.000811657
0.00102476
0.00119246
0.0013648
0.00139983
0.0117747
0.190669
0.000130765
0.000329339
0.0013159
0.000409579
0.000466753
0.000670222
0.00023672
0.00035943
0.000201684
0.000330588
0.000173178
0.000290428
0.00013405
0.000294023
0.000112158
0.000279587
0.000113205
0.000313299
0.000109363
0.000348985
0.00011526
0.000377544
0.000144876
0.000408333
0.000167901
0.000453592
0.000225079
0.000513246
0.000384794
0.000707736
0.000662657
0.00105312
0.00134946
0.00147576
0.00151459
0.011802
0.18688
0.000169106
0.000369576
0.000553984
0.000827113
0.000235908
0.000490797
0.00026744
0.000337511
0.000252454
0.000300766
0.000268237
0.000220183
0.000259566
0.000165561
0.000224664
0.000142585
0.000233588
0.000113677
0.000290029
0.000116198
0.00030343
0.000117016
0.00032893
0.00013121
0.000359248
0.000163157
0.000370077
0.00027114
0.000416843
0.000403854
0.000613832
0.000796584
0.00102217
0.00117409
0.00145224
0.00135968
0.011046
0.189583
0.000149618
0.000296629
0.00128314
0.000356251
0.000533939
0.000597629
0.000256418
0.00031611
0.000197371
0.000311973
0.000169995
0.000267778
0.000164314
0.000272826
0.000131089
0.000250976
0.000101375
0.000250966
0.000104568
0.000264306
0.000108214
0.000330997
0.000112997
0.000368749
0.000136994
0.00038985
0.000157439
0.000455642
0.000229674
0.000502092
0.000367375
0.000719179
0.000664112
0.00105528
0.00131763
0.00136858
0.00146015
0.011116
0.186336
0.000168259
0.000404616
0.000526757
0.000831598
0.000250936
0.000474113
0.00025584
0.000324714
0.000228103
0.000314081
0.000250316
0.000240425
0.000226626
0.000192804
0.000239076
0.000155318
0.000208869
0.000130643
0.000217211
0.000103389
0.000260797
9.95633e-05
0.000298524
0.000112271
0.000334585
0.000129065
0.000357498
0.000164652
0.000370376
0.00027108
0.000418546
0.000412676
0.000614301
0.000800601
0.00104061
0.00116144
0.00138276
0.00135118
0.0121478
0.188991
0.000163639
0.000277594
0.00127654
0.000330834
0.000551624
0.000536093
0.000246814
0.000282406
0.00020287
0.000287422
0.000155137
0.000251772
0.000170129
0.000254494
0.000147923
0.000225424
0.00011964
0.000229771
9.24076e-05
0.000216112
9.30016e-05
0.000263949
9.38866e-05
0.000319225
0.000106508
0.00035495
0.000132051
0.000383775
0.000156099
0.000452452
0.00022608
0.000503433
0.000368208
0.000711238
0.00067612
0.00106795
0.00130418
0.00133142
0.00149644
0.0122011
0.18543
0.000167709
0.000459741
0.000458972
0.000829491
0.000248851
0.000439253
0.000252739
0.000320875
0.00020561
0.00027433
0.000207524
0.000236583
0.000201927
0.000221651
0.000215806
0.000175902
0.000221989
0.000139677
0.000198605
0.000117123
0.000206244
9.60886e-05
0.00025189
9.61855e-05
0.000293359
0.000106835
0.00033074
0.000122642
0.000356407
0.00016164
0.000375907
0.000270818
0.000420991
0.000415054
0.000627343
0.000795055
0.0010433
0.00115509
0.00158335
0.00139198
0.0112365
0.18807
0.000177864
0.000257881
0.00126884
0.000299906
0.000543594
0.000495094
0.000255743
0.000256646
0.000224475
0.000250479
0.000172109
0.000234929
0.000148296
0.000229388
0.00013436
0.000235899
0.000132923
0.000209394
0.000106536
0.000211672
8.03553e-05
0.000208184
8.80197e-05
0.000252905
8.91812e-05
0.000296461
0.000106555
0.000344594
0.000128708
0.000375001
0.00015525
0.000446726
0.000224686
0.000491764
0.000373475
0.000709872
0.000683219
0.00108122
0.00129331
0.00137929
0.00141681
0.01135
0.183981
0.000155364
0.000521827
0.00039685
0.000796553
0.000235986
0.000439249
0.00026184
0.000329834
0.000183964
0.000293537
0.000178271
0.000244224
0.000181052
0.00021036
0.000191839
0.000187952
0.000197055
0.00015641
0.000203444
0.00012743
0.000192505
0.000110416
0.000199953
9.26221e-05
0.000242513
9.14492e-05
0.000295729
0.000104623
0.000329128
0.00011847
0.000358396
0.000162057
0.000374772
0.000266592
0.000427013
0.000416581
0.000628868
0.000782007
0.00104207
0.00114147
0.00145266
0.00132756
0.0105245
0.186506
0.000196431
0.000255161
0.00122107
0.000276497
0.000523946
0.000450514
0.000270398
0.000237762
0.000257588
0.000213908
0.000205497
0.000213397
0.000154355
0.000207697
0.000128081
0.000229098
0.000130132
0.000211876
0.000121923
0.000185925
0.000105003
0.000190158
7.63975e-05
0.00020002
8.73776e-05
0.000240991
8.67631e-05
0.000282293
0.000109003
0.000334703
0.000129337
0.000364441
0.000155396
0.000438317
0.000221816
0.000487569
0.000374342
0.000721471
0.000683245
0.00109724
0.00128767
0.00128726
0.00135668
0.0106235
0.182756
0.000143974
0.00059659
0.000333719
0.000783056
0.000225676
0.000480065
0.000269328
0.000336553
0.000183936
0.000308008
0.000161364
0.000265603
0.000156429
0.000218277
0.000173229
0.000193865
0.00017786
0.000169466
0.000183754
0.000144675
0.000192938
0.000117848
0.000181808
0.000106286
0.000195325
8.79798e-05
0.000233466
9.4635e-05
0.000291286
0.000103808
0.00032927
0.000112676
0.000360701
0.000162727
0.000375039
0.000276976
0.000430576
0.000419239
0.000633947
0.000770691
0.00104338
0.00113471
0.00140343
0.00131585
0.011354
0.185328
0.000206922
0.000250321
0.00117084
0.000235356
0.000537216
0.000410831
0.000300129
0.00022354
0.000304685
0.000190248
0.000242845
0.000185389
0.00017129
0.000204124
0.000128345
0.000196384
0.000134365
0.000199209
0.000119821
0.000191529
0.000113951
0.000176722
9.99868e-05
0.000187409
7.52157e-05
0.000191317
8.65214e-05
0.000228908
8.95635e-05
0.000263957
0.000109333
0.000324698
0.000120963
0.000359918
0.000158328
0.000423179
0.000226783
0.000484747
0.000375652
0.000725363
0.000687813
0.00110276
0.00128503
0.00125351
0.00142305
0.0114825
0.181433
0.000149048
0.000625562
0.00028928
0.000788096
0.000217075
0.000537496
0.000274021
0.000337191
0.000193746
0.000293159
0.000156824
0.000272166
0.000139741
0.000230553
0.000141564
0.000188749
0.000161832
0.000168403
0.000171822
0.000144844
0.000180615
0.000138754
0.00018768
0.000109016
0.000171068
0.000102206
0.000194979
8.55935e-05
0.000226499
9.01437e-05
0.000276946
0.000104778
0.000333966
0.000123099
0.000361376
0.000163815
0.000366749
0.00027851
0.000439169
0.000419153
0.00064145
0.000767879
0.00104709
0.00113004
0.00158591
0.00136833
0.0104387
0.183974
0.000212006
0.000257227
0.00111331
0.000216902
0.000535641
0.000378195
0.00031237
0.000203769
0.000335799
0.000171895
0.000268772
0.000174544
0.000195709
0.000167924
0.00016239
0.00018038
0.000121248
0.000174994
0.000110784
0.000184327
0.00011747
0.000177929
0.000112994
0.000170948
0.000101033
0.00018367
7.90026e-05
0.000174113
7.72322e-05
0.000218094
8.8848e-05
0.000277035
0.000112432
0.000320375
0.000123261
0.000356514
0.000157985
0.000420923
0.000227243
0.000486359
0.000379718
0.000727954
0.000674644
0.00109087
0.00127061
0.00129577
0.0013627
0.0106624
0.180284
0.000144121
0.000591774
0.000258249
0.000798651
0.000213542
0.000598068
0.000262102
0.000350329
0.000230347
0.000279598
0.000162299
0.000266525
0.00013468
0.00023912
0.000133948
0.00020312
0.000136885
0.000175896
0.000145912
0.000154496
0.000167485
0.000130792
0.000170897
0.000134637
0.00017495
0.000110159
0.000166062
0.000101416
0.000194068
8.50611e-05
0.000217821
8.09413e-05
0.000273688
0.000103859
0.000331198
0.000124806
0.000363023
0.000166516
0.000371568
0.000276909
0.000443851
0.000418321
0.000650964
0.000743792
0.00106467
0.00112736
0.0014859
0.00133529
0.0097491
0.182948
0.000222981
0.000257661
0.0010644
0.00019181
0.000528868
0.000373771
0.000327949
0.00018397
0.000342958
0.000169951
0.000291032
0.000166327
0.000219038
0.000157796
0.000185203
0.000150893
0.000136214
0.000170486
0.000118566
0.000164622
0.000100541
0.000168458
0.000108007
0.000167137
0.000105885
0.000166286
9.8097e-05
0.000177628
8.03757e-05
0.000165872
7.8092e-05
0.000216447
8.06933e-05
0.000266704
0.000114168
0.000314945
0.000124814
0.000354098
0.000159231
0.000412666
0.000227834
0.000490639
0.00038607
0.000729606
0.000653149
0.00109288
0.00126766
0.00121462
0.00134531
0.0114641
0.179216
0.000144609
0.000575109
0.00023032
0.000832308
0.000215244
0.000666175
0.000251348
0.00036273
0.000260959
0.000273344
0.000183055
0.00024855
0.000151434
0.000240477
0.000131647
0.000214743
0.000126816
0.000183305
0.000123593
0.000164941
0.00014567
0.000140758
0.000154962
0.000127837
0.000159231
0.000125993
0.000174789
0.000106014
0.000163227
9.52887e-05
0.000192472
8.38142e-05
0.000209713
8.14512e-05
0.000271671
0.000101088
0.000328617
0.0001238
0.000362488
0.000170552
0.000372357
0.000262108
0.000448918
0.000420343
0.000652602
0.000724269
0.00106542
0.00112012
0.00144906
0.00142676
0.0105046
0.181744
0.000239515
0.000247602
0.00100772
0.00018645
0.000547593
0.000378201
0.00034227
0.000172372
0.000329549
0.000173754
0.000302637
0.000170318
0.000244722
0.000145511
0.000216631
0.000148291
0.000167449
0.000156017
0.000134454
0.0001528
0.000109878
0.000150739
9.64564e-05
0.000154083
0.000102051
0.000161847
0.000102879
0.00016306
9.64416e-05
0.000169417
8.23316e-05
0.000162985
7.84418e-05
0.000216507
8.62633e-05
0.000259672
0.000115131
0.000311971
0.000128726
0.000351591
0.000160465
0.000417753
0.000216933
0.000490824
0.000379952
0.000729597
0.000640925
0.00109422
0.0012617
0.00132609
0.00136211
0.0106028
0.177892
0.000142752
0.000539765
0.000219761
0.000839064
0.000201544
0.000712706
0.000250991
0.000377046
0.000288604
0.000273772
0.000197756
0.000232501
0.000165257
0.000224785
0.000129548
0.000211367
0.000123158
0.000197485
0.0001236
0.00017134
0.000118764
0.000147963
0.000138949
0.000125858
0.000149945
0.000123341
0.000155841
0.000120923
0.000166163
0.000101952
0.000163507
9.27175e-05
0.000189425
8.16385e-05
0.000210998
8.36101e-05
0.000272582
0.000102781
0.000328456
0.000125383
0.000365489
0.000171673
0.000378933
0.000273005
0.00045059
0.00039429
0.000659002
0.000722369
0.00106165
0.00111654
0.00152297
0.00134949
0.0097367
0.180501
0.000250416
0.000240151
0.000954486
0.000190918
0.000582229
0.000366544
0.00034074
0.000169389
0.000302088
0.000162616
0.000294283
0.000158533
0.00025131
0.000147197
0.000210716
0.000138261
0.000204058
0.000143605
0.000155149
0.00014452
0.000127257
0.000139972
0.000105736
0.000141334
9.00535e-05
0.000147029
9.9373e-05
0.000155491
0.000100078
0.000156459
9.60661e-05
0.000163438
8.25971e-05
0.00016375
7.78801e-05
0.000211448
8.50675e-05
0.000256058
0.00011223
0.000310699
0.000128777
0.000343944
0.00015964
0.000415814
0.000222614
0.00049867
0.000361246
0.000733897
0.000641949
0.00109189
0.00126003
0.00121524
0.00129901
0.00990986
0.176571
0.00014062
0.000506722
0.000205077
0.000809365
0.000229097
0.000734437
0.000242352
0.000385688
0.000295859
0.000275266
0.000198397
0.000242176
0.00017435
0.000217858
0.00013614
0.000215862
0.000122406
0.000199216
0.000120105
0.000184741
0.000114977
0.000156727
0.000120034
0.000135559
0.000133059
0.000123655
0.00013762
0.000117741
0.000150144
0.000116081
0.000163307
0.00010158
0.000161434
9.12304e-05
0.000185762
8.14113e-05
0.000212384
8.27797e-05
0.000272566
0.000101323
0.000327059
0.000127106
0.000362885
0.000170666
0.000383372
0.000268066
0.000458907
0.000407104
0.000661256
0.000716924
0.00106333
0.00111295
0.00143438
0.00132605
0.00908665
0.178947
0.000257374
0.000235911
0.000895171
0.000193428
0.000610062
0.000375667
0.000326388
0.000167885
0.000290582
0.000154778
0.000275969
0.000136033
0.000239788
0.00013279
0.000211695
0.000138124
0.000190967
0.000128656
0.000195246
0.000135284
0.0001474
0.000130476
0.00012182
0.000131715
0.00011168
0.000133289
8.92014e-05
0.00014584
9.81175e-05
0.000147845
0.000101093
0.000152072
9.41372e-05
0.00016072
8.35181e-05
0.00016718
7.92287e-05
0.000208984
8.69746e-05
0.000253694
0.000111592
0.000306982
0.000130146
0.000346056
0.000163153
0.000413089
0.000223381
0.000495475
0.000362786
0.000735766
0.000641459
0.00109116
0.00125428
0.00119893
0.00126563
0.00930741
0.174888
0.000138146
0.000477806
0.000208516
0.000813622
0.000232758
0.000743725
0.000236685
0.000398017
0.000291297
0.000296918
0.000190264
0.000235909
0.000180821
0.000213516
0.000160581
0.000201273
0.000124829
0.000207246
0.000115493
0.000192225
0.000113793
0.000169279
0.000112209
0.000149769
0.000118797
0.000116632
0.000128577
0.000118496
0.000134693
0.000114701
0.000149655
0.000109639
0.000158588
9.88326e-05
0.000160323
9.07788e-05
0.000186186
8.00535e-05
0.000213646
8.44465e-05
0.000276363
0.00010155
0.000326536
0.000129462
0.000365192
0.000169705
0.000388058
0.000268845
0.000465785
0.000409772
0.000660542
0.000709716
0.00105759
0.00110258
0.00133766
0.00131529
0.00853692
0.177502
0.000266624
0.000245839
0.000839312
0.000184267
0.000589426
0.000361071
0.000311871
0.000170293
0.000280411
0.000159991
0.000262633
0.000130864
0.000248109
0.000120591
0.000205901
0.000129509
0.00020026
0.000121861
0.00018532
0.000119578
0.000187063
0.000125363
0.000146514
0.000119989
0.000118692
0.000127305
0.000112625
0.000128161
8.78043e-05
0.000141046
9.63541e-05
0.000144229
0.000102656
0.000151629
9.62568e-05
0.000158681
8.60917e-05
0.000164211
7.99548e-05
0.000204673
8.68648e-05
0.000249603
0.00011066
0.000306485
0.000131818
0.000346595
0.000161675
0.000411382
0.000230014
0.000485818
0.00037007
0.000738707
0.000647233
0.00109056
0.00125014
0.00115845
0.00126253
0.00985523
0.173474
0.000138471
0.000463071
0.000206799
0.000820404
0.000249961
0.00069911
0.000213144
0.00040657
0.000289232
0.000304788
0.000173144
0.000262218
0.000165893
0.000215775
0.000160822
0.000204841
0.000144991
0.000193937
0.000118196
0.000190557
0.000110376
0.000181118
0.000109754
0.000163565
0.000108986
0.000137223
0.000114464
0.000113855
0.000123162
0.000112257
0.000131855
0.000108358
0.000147865
0.00010813
0.000154936
9.81841e-05
0.000160458
9.11487e-05
0.000185435
8.3929e-05
0.000214314
8.54329e-05
0.000276823
0.000101504
0.00032519
0.000132295
0.000367649
0.00017367
0.000388502
0.000269136
0.000478518
0.000413466
0.000656681
0.000707435
0.00105599
0.0010944
0.00132906
0.00137675
0.00910945
0.175853
0.000277234
0.000252406
0.000741039
0.000187252
0.000552411
0.000346055
0.000305757
0.0001745
0.000279722
0.000160315
0.000257154
0.000126871
0.000237141
0.00011689
0.000224469
0.000113478
0.000203844
0.000118477
0.000196362
0.00011392
0.000178824
0.000114685
0.000174631
0.000116479
0.000144538
0.000118532
0.00012042
0.000124742
0.000107478
0.000127203
8.59761e-05
0.000140298
9.4998e-05
0.000142002
0.000102284
0.000150099
9.68486e-05
0.00015633
8.80031e-05
0.000162675
8.20237e-05
0.000203341
8.61858e-05
0.000250961
0.000110466
0.000306952
0.00013269
0.000346614
0.000164225
0.000410733
0.000236541
0.000483331
0.000380037
0.000741055
0.000654778
0.0010869
0.00124595
0.00126039
0.00130879
0.00916801
0.171838
0.000137667
0.000454857
0.000205367
0.000824254
0.00026018
0.00065073
0.000198586
0.00041193
0.000290959
0.000305463
0.000163888
0.000269957
0.000157057
0.0002373
0.00014734
0.00020221
0.000145063
0.00019515
0.000134726
0.000183593
0.0001151
0.000187676
0.00010607
0.000172
0.000109837
0.000160605
0.000109399
0.000131072
0.000110522
0.000112247
0.000122463
0.000105201
0.000130192
0.000104359
0.00014665
0.000105378
0.00015185
9.77358e-05
0.000159422
9.2225e-05
0.000181556
8.61818e-05
0.000214806
8.45623e-05
0.000276603
0.00010291
0.000325863
0.000133556
0.000370906
0.000175986
0.000389136
0.000272188
0.000475856
0.000413877
0.000653935
0.000706204
0.00105672
0.0010826
0.00139053
0.00136498
0.00849055
0.174146
0.000289532
0.000258369
0.000699697
0.000175978
0.000523252
0.000328438
0.00030874
0.000175394
0.000273629
0.000158411
0.000248717
0.000138038
0.000229666
0.000112852
0.000205283
0.000109168
0.000203761
0.000111344
0.000196527
0.000109146
0.000194696
0.00010763
0.000172003
0.000108914
0.000161597
0.000110286
0.000139762
0.000114448
0.000119538
0.000121156
0.000105212
0.000126219
8.65729e-05
0.000137935
9.42871e-05
0.000138931
0.000102177
0.000149042
9.65317e-05
0.000155945
9.05956e-05
0.000162214
8.25922e-05
0.000202558
8.92094e-05
0.000252903
0.000110529
0.000306091
0.000132628
0.000340565
0.000166353
0.000406231
0.000242397
0.000485615
0.000387276
0.000738752
0.000658968
0.0010869
0.00123098
0.00118586
0.00128961
0.00856675
0.170282
0.000134954
0.000437735
0.000199226
0.000760917
0.000238014
0.000600595
0.000175261
0.000407215
0.000286842
0.000318581
0.000160374
0.000273522
0.00014028
0.000240284
0.000147249
0.000221983
0.000138074
0.000201414
0.000139649
0.000187511
0.000129438
0.000180282
0.000112246
0.000182092
0.00010294
0.000170531
0.000108243
0.000155811
0.000107946
0.000126507
0.000110166
0.000109265
0.000121028
0.000101763
0.000128821
0.000102223
0.000145414
0.000103744
0.000149458
9.60951e-05
0.000160319
9.43094e-05
0.000178872
8.75012e-05
0.000213952
8.5588e-05
0.000278756
0.000105077
0.000325297
0.00013402
0.000364156
0.000178163
0.000390264
0.000275471
0.000471963
0.000418763
0.000648575
0.000699886
0.00105808
0.00108139
0.00133745
0.00136084
0.00901314
0.172488
0.000293924
0.000273352
0.000662894
0.000178014
0.000490735
0.000295741
0.000303924
0.000174214
0.000266619
0.000161587
0.000241674
0.000141352
0.000228179
0.000125305
0.000207484
0.000104039
0.000185592
0.000107384
0.000178509
0.000103838
0.000185055
0.000105446
0.000183806
0.000108039
0.000165154
0.000106726
0.000152906
0.000107709
0.000137791
0.000112867
0.000118325
0.000117356
0.000101778
0.000123106
8.59492e-05
0.000136204
9.25908e-05
0.000136949
0.000100275
0.000150724
9.58189e-05
0.000154384
9.22548e-05
0.000166215
8.50716e-05
0.000204846
9.0776e-05
0.000251182
0.000108588
0.0003076
0.000133123
0.000349973
0.000169964
0.000406169
0.000249314
0.000484025
0.00039346
0.000733638
0.000659884
0.001082
0.00121875
0.00115717
0.00137481
0.00909836
0.168824
0.000132615
0.000446285
0.000207084
0.000707858
0.000225218
0.000565086
0.000158625
0.000398861
0.000288291
0.000326831
0.000163497
0.000280466
0.000140612
0.000242778
0.000130084
0.000220565
0.000133867
0.000201594
0.000129994
0.000191404
0.000134227
0.000180113
0.000120899
0.00017619
0.000110988
0.000183158
0.000101895
0.00016829
0.0001068
0.000151585
0.00010618
0.000124779
0.000109485
0.000105517
0.000119398
9.83567e-05
0.000128547
9.94419e-05
0.000142928
0.000104336
0.000148701
9.55097e-05
0.000159768
9.4944e-05
0.000178598
8.74609e-05
0.000215171
8.68646e-05
0.00027796
0.00010683
0.000327318
0.00013436
0.000363951
0.000179052
0.00038841
0.000280099
0.000471164
0.000420659
0.000645586
0.000687913
0.00107635
0.00108459
0.00143972
0.00143152
0.00832811
0.170808
0.000300371
0.000295927
0.000610681
0.000177578
0.000450495
0.000276267
0.000295056
0.000172431
0.000276493
0.000171235
0.000230376
0.000137992
0.000213013
0.000119986
0.000204274
0.000113207
0.000179207
0.000106069
0.000181011
9.80277e-05
0.000175603
9.76216e-05
0.000176105
0.000105564
0.000166113
0.000105842
0.000156543
0.000108088
0.000148892
0.000106282
0.000135731
0.000109921
0.000117115
0.000113052
0.000100664
0.000121303
8.55819e-05
0.000135654
9.33097e-05
0.000134313
0.000100404
0.000148891
9.5512e-05
0.000155318
9.36908e-05
0.000167009
8.7668e-05
0.000204396
9.17938e-05
0.000256028
0.0001022
0.000307987
0.000134236
0.000351523
0.000173127
0.000406254
0.000254089
0.000484475
0.000400875
0.000731628
0.000649937
0.00106768
0.00121049
0.00119493
0.00135013
0.00844212
0.167125
0.000129333
0.000463447
0.000221319
0.000666786
0.000214424
0.000547475
0.000154305
0.000390089
0.000283066
0.000324405
0.000164218
0.000292468
0.000146381
0.000238193
0.000134876
0.000211658
0.0001233
0.000210558
0.000118619
0.00019339
0.000128222
0.000186404
0.000127951
0.00017527
0.00012028
0.00017861
0.000106752
0.000172077
0.000102697
0.000165171
0.000104874
0.000150032
0.000104649
0.000121369
0.000106715
0.00010481
0.000117084
9.58889e-05
0.000127015
9.95176e-05
0.00013913
0.000104007
0.000148446
9.5965e-05
0.000159711
9.71512e-05
0.00017845
8.81641e-05
0.000211644
8.79592e-05
0.000277248
0.000101204
0.000328873
0.000134604
0.000365185
0.00017979
0.000390342
0.000286534
0.000471338
0.000425281
0.000647454
0.000669381
0.00108254
0.00108242
0.00135596
0.00141276
0.00770309
0.168818
0.000299069
0.00030969
0.000612006
0.000177697
0.000413208
0.000259864
0.000296211
0.000170013
0.00028993
0.000178772
0.00023205
0.000153539
0.000205561
0.000133376
0.000202702
0.000120345
0.000189283
0.000109955
0.000168255
9.9687e-05
0.000179893
9.67325e-05
0.000166427
9.73e-05
0.000171373
0.000105097
0.000160229
0.000107673
0.000149185
0.000107006
0.000148852
0.000105903
0.000133927
0.000106487
0.00011562
0.000108554
9.92862e-05
0.000118263
8.4893e-05
0.000133469
9.22084e-05
0.000132822
9.92819e-05
0.000147255
9.52767e-05
0.000155275
9.50082e-05
0.000168612
8.93827e-05
0.000207323
9.3473e-05
0.000257924
0.000107859
0.00030838
0.000135525
0.000350065
0.000176944
0.000405436
0.000261251
0.000485436
0.000407508
0.000730937
0.000624944
0.00106827
0.00119745
0.00112752
0.00130958
0.0078462
0.165177
0.000129743
0.000473992
0.000228686
0.000638
0.000204072
0.000535816
0.00015377
0.000384456
0.000286561
0.000324253
0.000180315
0.000278932
0.000152791
0.00023925
0.000139674
0.000217368
0.0001252
0.00018702
0.000114654
0.000196903
0.000113124
0.000175536
0.000121445
0.000179791
0.000124713
0.000170926
0.000118603
0.000172622
0.000108507
0.000171523
0.000101952
0.000161515
0.000103105
0.000146535
0.000103539
0.000120117
0.000104134
0.000102525
0.000116662
9.36267e-05
0.000125432
9.74369e-05
0.000137399
0.000102112
0.000147991
9.77533e-05
0.00015937
9.80622e-05
0.000180265
8.84441e-05
0.000215003
8.94138e-05
0.000278045
0.000100687
0.000329849
0.000132839
0.000365686
0.000181538
0.000393567
0.000292809
0.000473637
0.000429959
0.000650216
0.00065282
0.00108792
0.00107495
0.00131915
0.00138793
0.0071822
0.166897
0.000296524
0.000327708
0.000571336
0.00017061
0.000383154
0.000245673
0.000292637
0.000179486
0.000296849
0.000187528
0.000234276
0.000163046
0.000203537
0.000153666