/*--------------------------------*- C++ -*----------------------------------*\
| =========                 |                                                 |
| \\      /  F ield         | OpenFOAM: The Open Source CFD Toolbox           |
|  \\    /   O peration     | Version:  2206                                  |
|   \\  /    A nd           | Website:  www.openfoam.com                      |
|    \\/     M anipulation  |                                                 |
\*---------------------------------------------------------------------------*/
FoamFile
{
    version     2.0;
    format      ascii;
    arch        "LSB;label=32;scalar=64";
    class       volVectorField;
    location    "200";
    object      rhoUMean;
}
// * * * * * * * * * * * * * * * * * * * * * * * * * * * * * * * * * * * * * //

dimensions      [1 -2 -1 0 0 0 0];

internalField   nonuniform List<vector> 
93840
(
(1.65857 -1.93999 1.45407e-17)
(0.439335 0.225143 4.58068e-18)
(1.48086 -1.89775 1.3457e-17)
(0.772656 -0.499822 1.98605e-18)
(0.473364 0.228308 4.05086e-18)
(1.2815 -1.59189 1.18223e-17)
(0.721811 0.263745 3.31522e-17)
(0.762047 -0.130673 1.10379e-17)
(0.57054 0.24211 2.29696e-18)
(1.19062 -1.15787 1.79195e-17)
(1.01226 -0.112032 -1.25826e-17)
(0.826054 0.0702752 6.87508e-17)
(0.895755 -0.117877 2.48959e-17)
(0.739675 0.239389 -4.67149e-17)
(1.16625 -0.848124 -1.50907e-17)
(0.86488 0.0398829 -1.51682e-16)
(0.859604 -0.0461902 -3.38358e-17)
(0.596351 0.0733423 2.51901e-17)
(0.849362 -0.277337 3.60115e-17)
(0.772137 0.15083 -6.16178e-17)
(1.13677 -0.699224 6.72208e-18)
(0.86276 -0.0206255 -1.72968e-17)
(0.85531 0.0703294 -1.66789e-16)
(0.872676 -0.0270282 -5.41223e-17)
(0.771405 0.208612 2.77629e-17)
(0.63183 -0.144133 2.15966e-17)
(0.738314 0.101153 4.66336e-17)
(1.14899 -0.736897 -9.27677e-19)
(0.811987 0.0376744 6.38392e-17)
(0.851961 -0.0441178 1.64161e-17)
(0.864294 0.0782837 -1.29133e-16)
(0.906415 -0.0635175 -8.56116e-17)
(0.777269 0.145669 7.39118e-17)
(0.792816 -0.093446 -2.31131e-17)
(0.75006 0.121783 -3.7156e-17)
(1.12479 -0.751865 -1.72909e-17)
(0.859545 -0.0186762 8.13648e-17)
(0.835372 0.0684385 7.93904e-17)
(0.834842 -0.0236539 1.57447e-17)
(0.842679 0.0480059 -1.47813e-16)
(0.840988 -0.0561137 -1.80092e-16)
(0.850635 0.118087 -3.9435e-17)
(0.783792 -0.0117882 -4.6865e-17)
(0.739278 0.128208 3.54794e-17)
(1.11134 -0.753611 6.14504e-18)
(0.831089 0.0386386 -8.96117e-18)
(0.870495 -0.0289062 7.731e-17)
(0.830521 0.070439 9.13943e-17)
(0.78388 -0.00460248 1.44035e-16)
(0.823168 0.0514304 9.37674e-17)
(0.837796 -0.00639474 -3.65123e-17)
(0.799295 0.0244649 8.58622e-17)
(0.809618 -0.0311962 1.46588e-17)
(0.747093 0.12539 -2.66349e-17)
(1.09085 -0.750739 -5.17379e-18)
(0.863124 -0.0171177 1.43013e-16)
(0.86403 0.0528528 1.06302e-18)
(0.845474 -0.0214519 4.74251e-17)
(0.823715 0.0436335 8.23299e-17)
(0.806075 -0.0222404 6.65772e-17)
(0.843389 0.0301522 4.30435e-17)
(0.795711 0.0197234 -7.26334e-17)
(0.817524 0.0523953 -4.74029e-17)
(0.82359 -0.0192621 -4.81439e-17)
(0.741478 0.129588 1.88214e-17)
(1.08595 -0.755816 1.41075e-18)
(0.832444 0.0386928 -1.13821e-16)
(0.86537 -0.0189693 1.24326e-16)
(0.854869 0.0636945 -8.89734e-18)
(0.845849 0.00185682 2.62676e-17)
(0.861406 0.0508655 3.19469e-17)
(0.81533 0.0184623 -9.87848e-17)
(0.814414 0.0231286 -1.14237e-17)
(0.825345 0.0201356 -6.48099e-17)
(0.804125 0.0284898 6.72659e-17)
(0.821815 -0.0203732 5.35422e-18)
(0.746317 0.127618 -2.13731e-17)
(1.06966 -0.741397 -2.2722e-18)
(0.839111 -0.015914 -9.86065e-18)
(0.849787 0.052164 -1.48924e-16)
(0.849834 -0.0157525 9.47125e-17)
(0.871391 0.0371388 1.95515e-17)
(0.86246 -0.00806147 9.41784e-18)
(0.870731 0.0329388 3.36463e-17)
(0.838419 0.0162862 1.35702e-16)
(0.846869 0.036357 1.05302e-16)
(0.80301 0.017554 -4.46357e-17)
(0.814153 0.0441979 -3.59745e-17)
(0.827947 -0.0151608 -3.82317e-17)
(0.74448 0.131618 1.18065e-17)
(1.06809 -0.74927 -4.24978e-19)
(0.818941 0.0383343 -1.28717e-16)
(0.833826 -0.0165948 -8.43031e-18)
(0.84808 0.0580135 -1.33326e-16)
(0.837183 0.00515284 7.95205e-17)
(0.854875 0.0369405 1.99181e-17)
(0.827476 0.0170938 1.44014e-17)
(0.856831 0.0279538 -5.03321e-17)
(0.841308 0.0304661 -1.02194e-16)
(0.815649 0.0253581 -2.68117e-18)
(0.830372 0.017662 -7.52445e-17)
(0.808133 0.0323398 5.34403e-17)
(0.824708 -0.014999 7.47987e-18)
(0.747813 0.12643 -1.84296e-17)
(1.05262 -0.733674 -2.29152e-18)
(0.841123 -0.0149792 1.07838e-17)
(0.83288 0.0512296 -1.36606e-16)
(0.825315 -0.0116039 4.41042e-18)
(0.852509 0.0361662 -2.16402e-16)
(0.84465 -0.00124276 -1.39069e-16)
(0.865114 0.0314621 -7.83051e-17)
(0.853509 0.0151238 -7.41893e-17)
(0.871544 0.0370149 -2.35378e-17)
(0.845141 0.0199343 7.14364e-17)
(0.84799 0.0408647 1.21126e-16)
(0.80747 0.0173848 -3.2336e-17)
(0.812957 0.0434681 -2.49643e-17)
(0.829558 -0.0114497 -3.78818e-17)
(0.746358 0.130327 8.32929e-18)
(1.05425 -0.742137 -1.3538e-19)
(0.823873 0.038107 3.58525e-17)
(0.830616 -0.0142644 3.90035e-17)
(0.833405 0.0541079 -1.35173e-16)
(0.808839 0.00539562 1.07617e-17)
(0.83716 0.0331584 -7.91786e-17)
(0.821704 0.0172434 -1.98139e-17)
(0.848306 0.0286973 8.41953e-17)
(0.82916 0.0284015 4.6968e-17)
(0.851239 0.0243677 -1.86105e-17)
(0.848576 0.0269117 -9.81265e-17)
(0.820758 0.027152 -6.74021e-19)
(0.830107 0.0171799 -7.93053e-17)
(0.810309 0.0333718 4.32036e-17)
(0.826398 -0.0115566 6.22441e-18)
(0.748903 0.125758 -1.66345e-17)
(1.03875 -0.725841 -2.18741e-18)
(0.848921 -0.0143064 1.08414e-16)
(0.836021 0.0501737 7.71173e-17)
(0.824778 -0.00875183 7.98897e-17)
(0.840217 0.0365764 -1.51035e-16)
(0.832794 0.00153118 3.89393e-17)
(0.850071 0.030742 1.00408e-16)
(0.835201 0.0140906 1.11649e-16)
(0.855414 0.0362174 -1.86658e-18)
(0.850387 0.0178503 -5.39343e-17)
(0.869203 0.0389796 -3.38853e-17)
(0.848334 0.0199236 4.50339e-17)
(0.849418 0.043806 1.22575e-16)
(0.811696 0.0177024 -2.31509e-17)
(0.811972 0.0428468 -1.88733e-17)
(0.830608 -0.00817222 -3.80351e-17)
(0.747852 0.129363 4.84234e-18)
(1.0429 -0.734779 5.56547e-19)
(0.832406 0.0373895 -4.39388e-17)
(0.837558 -0.012097 1.01253e-16)
(0.838318 0.0512642 9.08313e-17)
(0.816437 0.00625096 1.82495e-16)
(0.842165 0.0333212 5.61181e-17)
(0.821413 0.0180735 -8.17982e-17)
(0.840516 0.029 -2.27146e-16)
(0.821952 0.0263988 -1.32987e-16)
(0.844599 0.0278128 4.4182e-17)
(0.831998 0.0298971 5.35679e-17)
(0.850337 0.024081 -2.15172e-18)
(0.852146 0.0263887 -8.7938e-17)
(0.82415 0.0286429 3.87128e-18)
(0.829066 0.0179413 -8.09956e-17)
(0.811649 0.0343141 3.67656e-17)
(0.828065 -0.00908197 6.34093e-18)
(0.749807 0.125418 -1.52556e-17)
(1.02717 -0.71817 -3.57523e-18)
(0.859373 -0.0135588 2.87623e-17)
(0.843711 0.0494653 -4.32544e-17)
(0.835756 -0.00589827 6.54874e-17)
(0.845239 0.0376629 1.20141e-16)
(0.843129 0.00452234 1.74645e-16)
(0.855273 0.0313864 -2.88446e-17)
(0.843387 0.0143314 2.50919e-17)
(0.853272 0.0363535 5.96264e-17)
(0.836097 0.0165569 1.38822e-16)
(0.852009 0.0370761 2.7814e-17)
(0.847944 0.0180291 -4.52896e-17)
(0.86787 0.0396727 -4.12044e-17)
(0.849754 0.0196167 1.9321e-17)
(0.850158 0.0447909 1.24459e-16)
(0.815748 0.0186919 -1.89077e-17)
(0.811247 0.0426959 -1.79855e-17)
(0.831823 -0.00609493 -3.6864e-17)
(0.749125 0.128659 2.44219e-18)
(1.03315 -0.727333 -1.13819e-19)
(0.836192 0.0367978 -7.21675e-17)
(0.847984 -0.0100385 1.74012e-17)
(0.84379 0.0481373 -5.25746e-17)
(0.823078 0.00688051 2.60345e-17)
(0.844846 0.0328432 -1.26576e-17)
(0.8242 0.0185882 -8.7946e-17)
(0.846924 0.0296006 5.51253e-17)
(0.828169 0.0261088 -1.16166e-17)
(0.841876 0.0290047 -2.06243e-16)
(0.823233 0.0282609 -1.74048e-16)
(0.843281 0.0275099 1.63761e-17)
(0.833791 0.0311533 5.40961e-17)
(0.848775 0.025815 6.23201e-18)
(0.8554 0.0260662 -7.91305e-17)
(0.826887 0.0298719 8.3534e-18)
(0.828971 0.0177621 -8.13625e-17)
(0.811617 0.03521 3.37701e-17)
(0.829708 -0.00745332 4.94986e-18)
(0.7506 0.12527 -1.4251e-17)
(1.01722 -0.710384 -4.92664e-18)
(0.866899 -0.013315 -1.12883e-16)
(0.849802 0.0483947 -1.12418e-16)
(0.844814 -0.00302735 -1.29307e-17)
(0.849778 0.0377847 -6.64508e-17)
(0.845459 0.00710443 -5.67116e-17)
(0.852918 0.0315653 1.22189e-16)
(0.845911 0.0150767 3.01607e-16)
(0.85741 0.0354481 1.70266e-16)
(0.844497 0.0159317 4.39098e-17)
(0.854123 0.0371834 3.95246e-17)
(0.83696 0.0171894 1.35569e-16)
(0.850303 0.0375899 4.45794e-17)
(0.846122 0.0186733 -3.50011e-17)
(0.86685 0.0407407 -4.27312e-17)
(0.850952 0.0200866 3.68658e-19)
(0.851052 0.0452151 1.2555e-16)
(0.818961 0.0197792 -1.50123e-17)
(0.81004 0.042436 -1.30745e-17)
(0.832934 -0.00470355 -3.34774e-17)
(0.750252 0.128278 -1.91304e-19)
(1.0247 -0.71945 1.11386e-18)
(0.842548 0.037093 2.93604e-16)
(0.859313 -0.00796871 -3.89811e-17)
(0.849823 0.0455706 -1.066e-16)
(0.832766 0.00773104 -6.36792e-17)
(0.851873 0.0327437 -1.06963e-16)
(0.835023 0.0193676 -4.72083e-17)
(0.85689 0.0298697 -8.12802e-17)
(0.83234 0.0260824 -1.68987e-16)
(0.848226 0.0298314 3.82804e-17)
(0.829972 0.0288445 2.7458e-17)
(0.842653 0.0292742 -1.77688e-16)
(0.824672 0.0292052 -1.88251e-16)
(0.841983 0.0274683 -3.39462e-18)
(0.83533 0.0316056 5.0659e-17)
(0.8478 0.02702 9.99574e-18)
(0.856401 0.025799 -7.59908e-17)
(0.829128 0.0318289 1.14175e-17)
(0.829348 0.0181159 -8.0988e-17)
(0.812423 0.0361937 2.76141e-17)
(0.831364 -0.0067416 4.16708e-18)
(0.751281 0.125111 -1.44186e-17)
(1.00844 -0.702399 -4.36874e-18)
(0.871716 -0.0127183 -3.49416e-16)
(0.859927 0.0475041 1.93346e-16)
(0.857726 -0.00023497 -2.77543e-17)
(0.859607 0.0380233 -1.47126e-16)
(0.856027 0.00890098 2.45705e-17)
(0.862314 0.031974 -1.45958e-17)
(0.85772 0.0160403 -8.98424e-17)
(0.86149 0.0346742 -1.15054e-16)
(0.847146 0.0165833 2.00691e-16)
(0.858514 0.0361371 1.95481e-16)
(0.84486 0.0168685 6.42526e-17)
(0.854148 0.0380564 3.00885e-17)
(0.837576 0.0184317 1.26207e-16)
(0.849064 0.0378585 5.48753e-17)
(0.844037 0.0187405 -2.45219e-17)
(0.86563 0.0413717 -4.00801e-17)
(0.852058 0.0205225 -1.18186e-17)
(0.851141 0.0451143 1.25538e-16)
(0.821339 0.0207954 -1.16856e-17)
(0.809407 0.0428829 -1.1614e-17)
(0.834187 -0.00408218 -3.4043e-17)
(0.751087 0.128149 -1.56652e-18)
(1.0175 -0.711437 1.20516e-19)
(0.849953 0.0372941 5.07266e-17)
(0.86972 -0.0058365 -3.87566e-16)
(0.858642 0.0433807 1.86642e-16)
(0.849149 0.00866613 9.05168e-17)
(0.863252 0.0328078 2.20864e-17)
(0.848433 0.0199434 6.09827e-17)
(0.865107 0.030059 -1.04503e-16)
(0.84255 0.0261303 -5.94495e-17)
(0.859894 0.030401 -3.92182e-17)
(0.835036 0.0291693 -1.79926e-16)
(0.849129 0.0300583 1.13023e-17)
(0.832022 0.0300979 4.86903e-17)
(0.842466 0.0290314 -1.55441e-16)
(0.826374 0.0301357 -1.88395e-16)
(0.84105 0.0279591 -1.81118e-17)
(0.837027 0.0316803 4.5525e-17)
(0.847216 0.0281524 1.33875e-17)
(0.857468 0.0257348 -7.34389e-17)
(0.831221 0.0333582 1.5196e-17)
(0.82954 0.0179722 -7.98699e-17)
(0.812083 0.0373114 2.47475e-17)
(0.832762 -0.00666483 4.14926e-18)
(0.751771 0.125123 -1.34245e-17)
(1.00094 -0.694007 -5.82155e-20)
(0.875566 -0.0117458 3.09254e-17)
(0.867457 0.0468241 1.85568e-16)
(0.870449 0.00198147 -3.27049e-16)
(0.870983 0.0378899 1.59915e-16)
(0.868601 0.0103784 9.6901e-17)
(0.874253 0.0322073 -7.87738e-17)
(0.869521 0.0169529 -1.47489e-16)
(0.871555 0.0343933 -4.74564e-17)
(0.861222 0.0175461 -8.18841e-17)
(0.864271 0.0343783 -1.62118e-16)
(0.846863 0.0179556 1.2811e-16)
(0.857186 0.0349868 1.99596e-16)
(0.845758 0.0179891 7.61178e-17)
(0.854076 0.0376236 2.20154e-17)
(0.837383 0.0196819 1.10337e-16)
(0.846975 0.0366272 6.01512e-17)
(0.841882 0.0193541 -1.32932e-17)
(0.863411 0.0415156 -3.56889e-17)
(0.852978 0.0205868 -2.32688e-17)
(0.85079 0.0449188 1.21976e-16)
(0.823723 0.0212675 -9.22383e-18)
(0.808989 0.0435541 -9.57925e-18)
(0.835471 -0.00420571 -3.47856e-17)
(0.751895 0.127737 -3.4684e-18)
(1.00563 -0.697007 -4.37587e-18)
(0.848533 0.0374516 1.16987e-16)
(0.869753 -0.00374553 5.27271e-18)
(0.862086 0.0418194 1.99949e-16)
(0.863186 0.0100037 -4.15922e-16)
(0.872413 0.0326718 -1.7956e-16)
(0.860694 0.020591 -1.14717e-16)
(0.876227 0.0302925 -4.44407e-17)
(0.858385 0.0266839 1.03833e-16)
(0.870374 0.0315794 -5.02798e-17)
(0.845767 0.028694 -6.24968e-17)
(0.860675 0.0295939 -2.43857e-17)
(0.839913 0.0308763 -1.55428e-16)
(0.849059 0.0303614 -1.79884e-19)
(0.833616 0.0310899 6.23598e-17)
(0.842988 0.0296512 -1.34843e-16)
(0.82872 0.0301172 -1.78245e-16)
(0.841991 0.0298189 -2.615e-17)
(0.839079 0.0313631 3.8524e-17)
(0.847913 0.0301638 1.26302e-17)
(0.858047 0.0255644 -6.91685e-17)
(0.833443 0.0349898 1.98191e-17)
(0.829956 0.018347 -7.95727e-17)
(0.811963 0.0385693 2.19949e-17)
(0.834105 -0.00716842 2.26229e-18)
(0.752351 0.124171 -1.32145e-17)
(1.00139 -0.694661 -3.69802e-19)
(0.869307 -0.0109548 2.28161e-16)
(0.861311 0.045756 1.49273e-16)
(0.867373 0.00393202 -1.90124e-17)
(0.87299 0.0368726 3.33306e-16)
(0.870944 0.0113752 -8.68842e-17)
(0.875446 0.0317718 9.2983e-19)
(0.868676 0.0175003 1.92309e-16)
(0.874075 0.0329204 2.81599e-16)
(0.869404 0.0181229 -2.85396e-17)
(0.873188 0.0343505 -3.49001e-17)
(0.862692 0.0191772 -6.62645e-17)
(0.864717 0.0345351 -1.82757e-16)
(0.847372 0.0189205 8.01558e-17)
(0.857267 0.0345229 1.93582e-16)
(0.844349 0.0202297 8.71862e-17)
(0.853361 0.0371482 1.40423e-17)
(0.837554 0.0213344 9.27172e-17)
(0.845838 0.0368293 6.29106e-17)
(0.840393 0.0196854 -2.39553e-18)
(0.859723 0.0404181 -2.79361e-17)
(0.85358 0.0208439 -3.45808e-17)
(0.849864 0.0449668 1.18218e-16)
(0.825533 0.0216882 -6.03312e-18)
(0.808923 0.0443034 -7.98091e-18)
(0.8368 -0.0049277 -3.05157e-17)
(0.750959 0.127434 -5.10465e-18)
(1.00036 -0.692417 -3.93398e-18)
(0.840968 0.0373435 -5.31001e-16)
(0.860045 -0.00219037 8.53829e-17)
(0.856241 0.04025 1.40494e-16)
(0.862853 0.0116941 -5.16567e-17)
(0.867541 0.0319617 3.54838e-16)
(0.858136 0.020747 3.73212e-16)
(0.870472 0.029791 3.22147e-16)
(0.856503 0.0271324 7.18133e-17)
(0.875923 0.0316803 -3.82609e-17)
(0.859825 0.0291321 1.03618e-16)
(0.872442 0.031813 -2.49712e-17)
(0.848355 0.0300977 -6.23246e-17)
(0.860933 0.0301376 -1.85914e-17)
(0.841329 0.0314051 -1.49462e-16)
(0.849451 0.0304989 -6.18441e-18)
(0.837073 0.0303304 7.1801e-17)
(0.843454 0.0300731 -1.18506e-16)
(0.829548 0.0301292 -1.73009e-16)
(0.841057 0.0303103 -3.17534e-17)
(0.840169 0.0305925 3.16397e-17)
(0.8502 0.0323702 1.06031e-17)
(0.858697 0.0255294 -6.92504e-17)
(0.836222 0.0361861 2.4848e-17)
(0.830318 0.0187269 -7.81007e-17)
(0.811949 0.0404177 2.00386e-17)
(0.836107 -0.00786367 9.65787e-19)
(0.750038 0.128051 -1.14893e-17)
(0.995184 -0.685093 -9.04587e-19)
(0.859196 -0.010171 3.98926e-16)
(0.85248 0.0449118 -4.52697e-16)
(0.860618 0.00560056 -4.25492e-18)
(0.86507 0.0358633 1.63996e-16)
(0.862433 0.0121414 -1.43815e-16)
(0.867282 0.0311243 -2.0125e-16)
(0.861276 0.0179807 -3.21503e-16)
(0.8708 0.0320396 -4.1411e-16)
(0.867277 0.0183504 -1.00888e-16)
(0.873963 0.0324124 2.64303e-16)
(0.868811 0.0198146 2.19249e-17)
(0.873199 0.0341634 -2.56598e-17)
(0.863242 0.0199224 -5.25482e-17)
(0.866025 0.0345341 -1.89165e-16)
(0.84762 0.0212471 3.88846e-17)
(0.856599 0.0345986 1.86003e-16)
(0.843925 0.0210357 9.61879e-17)
(0.852961 0.036385 6.81721e-18)
(0.838069 0.022105 8.13328e-17)
(0.845681 0.0377324 6.07282e-17)
(0.83972 0.0204326 4.72258e-18)
(0.858284 0.040809 -2.16978e-17)
(0.853894 0.0211897 -4.15098e-17)
(0.849938 0.0448515 1.15473e-16)
(0.82669 0.0218947 -1.79515e-18)
(0.808813 0.0451341 -6.22528e-18)
(0.838567 -0.00764774 -2.89713e-17)
(0.751435 0.129736 -7.81169e-18)
(0.994607 -0.683053 -3.57151e-18)
(0.832087 0.0370792 7.48932e-18)
(0.848421 -0.000942252 5.18507e-16)
(0.846461 0.0387341 -3.58226e-16)
(0.852434 0.0134131 -1.46649e-16)
(0.855898 0.0311055 6.15004e-17)
(0.850425 0.0210469 1.49236e-16)
(0.86237 0.0294494 9.8313e-17)
(0.852038 0.0271955 1.62999e-16)
(0.868956 0.0316335 3.60614e-16)
(0.85548 0.0289805 1.6224e-16)
(0.875199 0.0313606 -2.79418e-17)
(0.861412 0.029536 9.70774e-17)
(0.873051 0.031785 -1.0595e-17)
(0.850097 0.0308781 -6.23312e-17)
(0.861205 0.0303293 -1.56887e-17)
(0.843354 0.0303247 -1.34694e-16)
(0.849664 0.030672 -1.30315e-17)
(0.837989 0.030708 7.73235e-17)
(0.844199 0.0307594 -1.0074e-16)
(0.830301 0.03023 -1.64286e-16)
(0.840453 0.0308148 -3.43245e-17)
(0.840193 0.0298013 2.79195e-17)
(0.850023 0.0332632 1.18573e-17)
(0.858595 0.0256172 -6.84968e-17)
(0.838188 0.0373255 2.94012e-17)
(0.830536 0.0189183 -7.90044e-17)
(0.812347 0.0428036 1.69914e-17)
(0.836463 -0.00978901 1.05202e-18)
(0.751374 0.12843 -1.1905e-17)
(0.990226 -0.676054 -1.2549e-18)
(0.848651 -0.00952404 -2.77901e-16)
(0.838467 0.0438208 -2.06875e-16)
(0.845895 0.00691381 5.03883e-16)
(0.852915 0.0341602 -3.4539e-16)
(0.852833 0.0128456 -4.74011e-16)
(0.85783 0.0306668 -4.59499e-16)
(0.852441 0.0186489 -4.50496e-16)
(0.862055 0.0311074 -3.18291e-16)
(0.857531 0.0181042 -3.24637e-16)
(0.868883 0.0313672 -4.65274e-16)
(0.865842 0.0200352 -2.0057e-16)
(0.873385 0.0325756 2.33563e-16)
(0.868786 0.0206621 4.84115e-17)
(0.873677 0.0336645 -1.6134e-17)
(0.862819 0.0209434 -4.07134e-17)
(0.866451 0.0345997 -1.89667e-16)
(0.848148 0.0218061 1.05527e-17)
(0.856682 0.034595 1.76794e-16)
(0.843781 0.0218083 1.03501e-16)
(0.851035 0.03565 -7.02262e-18)
(0.838104 0.02246 5.7005e-17)
(0.845305 0.0381614 5.68628e-17)
(0.839447 0.0207795 8.69712e-18)
(0.857626 0.041074 -1.74642e-17)
(0.853823 0.0217286 -4.92922e-17)
(0.848892 0.0445117 1.06288e-16)
(0.827792 0.0220113 -3.13351e-18)
(0.809057 0.0469376 -4.90462e-18)
(0.838967 -0.00981517 -2.84895e-17)
(0.752601 0.129633 -6.95478e-18)
(0.990081 -0.674359 -3.35388e-18)
(0.828784 0.0366767 3.76957e-16)
(0.837296 0.000455712 -1.61159e-16)
(0.832729 0.0371737 -2.80632e-16)
(0.837452 0.0149438 6.51631e-16)
(0.843387 0.0303377 3.12624e-16)
(0.839926 0.0214656 1.24902e-16)
(0.849448 0.0290755 1.6202e-16)
(0.839521 0.0272313 3.37234e-16)
(0.857682 0.0313727 2.41105e-16)
(0.849831 0.0285871 1.45128e-16)
(0.868307 0.0314084 3.4907e-16)
(0.855451 0.0298942 1.8965e-16)
(0.874334 0.0319342 -1.36689e-17)
(0.861884 0.0299198 9.59657e-17)
(0.87363 0.0317929 -1.04328e-18)
(0.852305 0.0310224 -6.00801e-17)
(0.86149 0.0307835 -1.55685e-17)
(0.844378 0.0305734 -1.28374e-16)
(0.849941 0.0308485 -1.72308e-17)
(0.838959 0.0304752 8.66664e-17)
(0.846906 0.0315418 -7.76996e-17)
(0.831678 0.0301045 -1.47086e-16)
(0.840007 0.0314079 -3.71427e-17)
(0.839823 0.029506 2.51686e-17)
(0.850086 0.0336588 1.30679e-17)
(0.858855 0.0256031 -6.74436e-17)
(0.841 0.038733 3.8265e-17)
(0.830918 0.0190385 -7.27128e-17)
(0.812638 0.0450014 1.7163e-17)
(0.83643 -0.0118549 9.71437e-19)
(0.751786 0.129557 -1.36906e-17)
(0.986152 -0.667315 -1.54483e-18)
(0.844448 -0.00884537 -3.3311e-16)
(0.83261 0.0418923 3.64556e-16)
(0.837426 0.00820432 -1.5517e-17)
(0.839732 0.033759 -4.23577e-16)
(0.840587 0.0135779 4.5269e-16)
(0.844653 0.0301364 3.85728e-16)
(0.838106 0.0190443 4.42142e-16)
(0.846761 0.0301044 1.40718e-16)
(0.845179 0.0183221 -2.70065e-16)
(0.859844 0.0311197 -2.93772e-16)
(0.856009 0.0196415 -2.91038e-16)
(0.867344 0.0315477 -4.4153e-16)
(0.864957 0.0206802 -2.4001e-16)
(0.873103 0.0327201 2.03009e-16)
(0.868186 0.0214414 6.418e-17)
(0.873832 0.0332525 -8.78502e-18)
(0.862896 0.02142 -3.14653e-17)
(0.866639 0.0343582 -1.85832e-16)
(0.848511 0.0224218 -1.2948e-17)
(0.856434 0.0345223 1.65793e-16)
(0.843983 0.023014 1.06146e-16)
(0.849927 0.0355146 -6.23984e-18)
(0.838009 0.0228098 3.97157e-17)
(0.84495 0.0384279 5.2082e-17)
(0.838806 0.0213498 1.21743e-17)
(0.856813 0.0414133 -1.47908e-17)
(0.854234 0.0221812 -5.46919e-17)
(0.8489 0.0444717 1.0321e-16)
(0.82879 0.0217112 -4.16597e-18)
(0.809749 0.0486254 -5.80677e-18)
(0.838878 -0.0122191 -2.68172e-17)
(0.752248 0.132085 -8.52341e-18)
(0.986463 -0.665613 -1.12816e-17)
(0.825711 0.0359961 2.86793e-17)
(0.828118 0.00249884 -4.10068e-16)
(0.825996 0.0355717 3.30992e-16)
(0.826397 0.0159785 9.47012e-17)
(0.834385 0.0299911 -8.03353e-16)
(0.829881 0.0219399 -6.20738e-16)
(0.837507 0.0288644 -4.19108e-16)
(0.829754 0.0274645 -4.64291e-16)
(0.846021 0.0311702 -2.15308e-16)
(0.837157 0.0281422 2.18552e-16)
(0.856222 0.0309484 2.43334e-16)
(0.848833 0.0291365 1.24468e-16)
(0.868194 0.0306594 2.97372e-16)
(0.855348 0.0298702 1.87137e-16)
(0.873603 0.0319771 1.56621e-18)
(0.862825 0.0305887 9.5967e-17)
(0.873599 0.032135 5.83939e-18)
(0.854203 0.0312384 -5.88802e-17)
(0.861813 0.0310925 -1.91156e-17)
(0.8455 0.030835 -1.2467e-16)
(0.850174 0.0313068 -1.84899e-17)
(0.839722 0.0305392 8.93194e-17)
(0.847305 0.031864 -6.65489e-17)
(0.832754 0.0299835 -1.37599e-16)
(0.840256 0.0320107 -3.39918e-17)
(0.839687 0.0291948 2.3531e-17)
(0.849865 0.0344037 1.45077e-17)
(0.858521 0.0254507 -7.04214e-17)
(0.842397 0.0397472 4.11874e-17)
(0.831142 0.0192016 -7.18118e-17)
(0.81342 0.0469499 1.50222e-17)
(0.837553 -0.0149491 2.96494e-18)
(0.751221 0.131295 -1.35823e-17)
(0.982732 -0.65883 3.4164e-18)
(0.839402 -0.00832498 -6.02431e-17)
(0.827756 0.0393648 1.18334e-16)
(0.831303 0.00926093 -4.96412e-16)
(0.827793 0.0331981 2.81649e-16)
(0.831015 0.0143959 6.70059e-16)
(0.834481 0.0295958 3.86268e-16)
(0.828102 0.0194941 2.84164e-16)
(0.837342 0.0295148 3.42455e-16)
(0.833757 0.0187361 5.7255e-16)
(0.844938 0.0306299 3.37156e-16)
(0.842767 0.0194808 -1.67965e-16)
(0.85821 0.0307658 -2.74327e-16)
(0.854768 0.0214666 -2.56349e-16)
(0.866288 0.0315237 -4.2602e-16)
(0.863086 0.0221983 -2.30483e-16)
(0.872912 0.0324131 1.8279e-16)
(0.868316 0.0219141 7.73915e-17)
(0.873841 0.0330002 -2.27122e-18)
(0.862792 0.0223005 -2.41019e-17)
(0.866655 0.0341098 -1.80005e-16)
(0.849033 0.0231216 -3.08184e-17)
(0.856039 0.0345861 1.56355e-16)
(0.843747 0.0240246 1.10082e-16)
(0.849745 0.0354915 -8.68372e-18)
(0.838093 0.0229963 2.898e-17)
(0.844219 0.0384197 4.4213e-17)
(0.838474 0.0221836 1.4487e-17)
(0.856066 0.0414203 -1.05778e-17)
(0.854608 0.0227702 -5.7073e-17)
(0.849211 0.0448267 1.01154e-16)
(0.82926 0.0218684 -2.43276e-18)
(0.810331 0.0508673 -3.68061e-18)
(0.839121 -0.0151276 -3.08938e-17)
(0.758478 0.119003 -9.38124e-18)
(0.982277 -0.658881 -7.5183e-18)
(0.823014 0.0354129 9.38561e-17)
(0.823687 0.00491128 -2.90361e-17)
(0.824608 0.0343176 1.90353e-16)
(0.818679 0.0170231 -6.23117e-16)
(0.828664 0.0299495 -1.62334e-16)
(0.822663 0.0223865 2.53746e-16)
(0.830503 0.0287983 1.51514e-16)
(0.824542 0.0277746 1.08181e-17)
(0.836468 0.0306962 -1.67077e-16)
(0.827514 0.028067 -4.47279e-16)
(0.845044 0.0311464 -3.04188e-16)
(0.83639 0.0287428 1.5447e-16)
(0.855179 0.0307117 2.3955e-16)
(0.848876 0.0292734 9.49526e-17)
(0.867092 0.0306882 2.72582e-16)
(0.857589 0.0294048 1.49819e-16)
(0.872733 0.0322093 7.68304e-18)
(0.863183 0.0308408 9.47029e-17)
(0.87362 0.0322887 1.13123e-17)
(0.855821 0.0312759 -5.57246e-17)
(0.862069 0.0313981 -2.22283e-17)
(0.846422 0.0308311 -1.20164e-16)
(0.850436 0.0316209 -1.97277e-17)
(0.840973 0.0302606 9.46152e-17)
(0.847391 0.032321 -5.4774e-17)
(0.8337 0.0301321 -1.31445e-16)
(0.840525 0.0331395 -2.87502e-17)
(0.839456 0.0286885 2.19645e-17)
(0.849814 0.0350789 1.54016e-17)
(0.858462 0.0252856 -7.03262e-17)
(0.843514 0.0405254 4.37271e-17)
(0.831132 0.0196199 -6.99372e-17)
(0.814279 0.0492862 1.1466e-17)
(0.828928 -0.0070094 4.28127e-18)
(0.757979 0.119696 -1.33632e-17)
(0.978534 -0.652773 8.86657e-18)
(0.836757 -0.00790827 3.83254e-17)
(0.825083 0.0370398 1.31333e-16)
(0.826705 0.010028 -1.70143e-17)
(0.822156 0.0327663 3.40947e-16)
(0.828516 0.01527 -4.56362e-16)
(0.830594 0.0293881 -4.18428e-16)
(0.827326 0.0200655 -2.41871e-16)
(0.836474 0.029325 -1.79197e-16)
(0.82873 0.0197329 -8.75587e-17)
(0.837488 0.0305395 1.53355e-16)
(0.832717 0.019383 5.27027e-16)
(0.843621 0.0306112 4.04462e-16)
(0.840972 0.0210121 -9.62633e-17)
(0.856715 0.0305207 -2.52687e-16)
(0.853738 0.0227731 -2.17966e-16)
(0.865516 0.0317336 -3.94713e-16)
(0.861963 0.0228652 -2.33854e-16)
(0.872449 0.0323467 1.62034e-16)
(0.868264 0.0223727 8.55221e-17)
(0.873801 0.0329516 4.40547e-18)
(0.86293 0.0230078 -1.92212e-17)
(0.866113 0.0341546 -1.65369e-16)
(0.849368 0.0236579 -4.99198e-17)
(0.85475 0.0347887 1.35529e-16)
(0.843702 0.0245341 1.12218e-16)
(0.849615 0.0354827 -8.6437e-18)
(0.838232 0.023238 1.94529e-17)
(0.843887 0.0379293 3.95787e-17)
(0.838108 0.0225978 1.68178e-17)
(0.85508 0.0415379 -9.29007e-18)
(0.854844 0.0230831 -6.51889e-17)
(0.849628 0.0449907 9.80007e-17)
(0.829433 0.0220219 3.63041e-20)
(0.81375 0.0496524 -5.1806e-19)
(0.831904 -0.00539389 -2.64169e-17)
(0.757542 0.123273 -1.03893e-17)
(0.978621 -0.651594 -5.3093e-18)
(0.82622 0.0348608 1.37778e-16)
(0.827118 0.00648996 -9.65656e-18)
(0.8271 0.0334019 6.50675e-17)
(0.815865 0.0179545 -5.73971e-17)
(0.828991 0.030074 5.88383e-16)
(0.823038 0.0229929 3.23743e-16)
(0.8345 0.0292782 -8.85332e-17)
(0.831215 0.0283522 -5.38578e-17)
(0.837123 0.0304845 1.31685e-16)
(0.824782 0.0286949 9.69963e-17)
(0.836644 0.03116 -7.68144e-17)
(0.827263 0.0286237 -3.91992e-16)
(0.844016 0.0307368 -3.38177e-16)
(0.836693 0.0288774 1.02687e-16)
(0.854394 0.0307204 2.28408e-16)
(0.849138 0.0294639 6.98812e-17)
(0.86628 0.0306251 2.29498e-16)
(0.857713 0.0297473 1.17692e-16)
(0.872082 0.0325313 1.52763e-17)
(0.86386 0.0310229 9.51681e-17)
(0.873632 0.0323909 1.49334e-17)
(0.856922 0.0310453 -5.12488e-17)
(0.863339 0.0314119 -3.3412e-17)
(0.847303 0.0307436 -1.15944e-16)
(0.85211 0.0316162 -1.15982e-17)
(0.841455 0.0302563 1.00733e-16)
(0.847457 0.0327711 -4.77692e-17)
(0.834385 0.0303286 -1.25716e-16)
(0.840453 0.0335961 -3.25019e-17)
(0.839357 0.0285022 1.73135e-17)
(0.849673 0.0356565 1.92521e-17)
(0.858239 0.0252532 -6.74062e-17)
(0.844511 0.0409982 4.56333e-17)
(0.831455 0.0196615 -7.00632e-17)
(0.816013 0.0460972 8.31203e-18)
(0.832206 -0.00852281 -1.26212e-19)
(0.757207 0.124082 -1.39369e-17)
(0.975186 -0.645533 -5.75401e-19)
(0.844306 -0.00711529 -1.66512e-16)
(0.835812 0.0366023 6.46427e-17)
(0.839066 0.0111298 3.8915e-17)
(0.82945 0.0326804 1.13947e-16)
(0.837153 0.0163194 -7.67428e-17)
(0.838417 0.029729 1.65422e-16)
(0.842322 0.0209108 2.09816e-16)
(0.85089 0.0296423 1.11057e-16)
(0.838912 0.0208774 1.66397e-17)
(0.840581 0.0301998 -1.43197e-16)
(0.828723 0.0215839 -1.2839e-16)
(0.836876 0.0301439 7.21899e-17)
(0.83226 0.0206783 4.56378e-16)
(0.842792 0.0305622 4.23133e-16)
(0.839848 0.0221891 -4.39664e-17)
(0.855297 0.0303558 -2.29445e-16)
(0.85353 0.0229045 -1.91594e-16)
(0.864931 0.0313171 -3.62216e-16)
(0.862006 0.0229521 -2.2317e-16)
(0.871763 0.032679 1.37078e-16)
(0.867998 0.0227073 9.25944e-17)
(0.873852 0.0331384 9.46902e-18)
(0.862794 0.0234099 -1.36294e-17)
(0.865976 0.0343218 -1.61381e-16)
(0.849566 0.0242288 -6.42745e-17)
(0.854275 0.0347697 1.25239e-16)
(0.843852 0.025071 1.14988e-16)
(0.849707 0.0355172 -7.98199e-18)
(0.838113 0.0241914 4.62002e-18)
(0.843704 0.0381405 3.39931e-17)
(0.837901 0.0228332 1.81806e-17)
(0.854329 0.0416525 -5.4234e-18)
(0.854983 0.0234917 -6.95206e-17)
(0.850212 0.0451269 9.5249e-17)
(0.829794 0.0228587 -3.84331e-18)
(0.81296 0.0507721 -4.45962e-18)
(0.834974 -0.0100489 -2.00505e-17)
(0.756502 0.126467 -1.13516e-17)
(0.975392 -0.644189 2.61425e-18)
(0.836721 0.0342797 3.24305e-17)
(0.838165 0.0074307 -1.54908e-16)
(0.835657 0.0325363 8.54145e-17)
(0.824295 0.0191443 1.16558e-16)
(0.84162 0.0305386 1.01659e-16)
(0.836668 0.0239077 -3.69482e-16)
(0.853107 0.0301093 -3.76542e-16)
(0.849524 0.029125 -1.99386e-16)
(0.849866 0.0309443 -2.3043e-16)
(0.8356 0.0285535 -1.63721e-16)
(0.83904 0.0295456 8.38567e-17)
(0.827269 0.0281473 9.98796e-17)
(0.836261 0.0307095 -2.79223e-17)
(0.827078 0.0287981 -3.40115e-16)
(0.843116 0.0307396 -3.42727e-16)
(0.837367 0.0285318 6.4063e-17)
(0.853523 0.0309049 2.19136e-16)
(0.849137 0.0297088 5.99497e-17)
(0.865577 0.0310189 2.02005e-16)
(0.857786 0.0298407 1.03915e-16)
(0.872465 0.0321712 2.73553e-17)
(0.864031 0.0311868 9.51958e-17)
(0.873757 0.032401 2.01081e-17)
(0.85779 0.0312231 -4.71609e-17)
(0.86376 0.0314598 -3.37801e-17)
(0.847981 0.0307079 -1.14946e-16)
(0.852309 0.0319382 -1.24906e-17)
(0.84194 0.0301469 1.01293e-16)
(0.847642 0.0331798 -3.94704e-17)
(0.835055 0.0297015 -1.1158e-16)
(0.840417 0.0339742 -3.03425e-17)
(0.83907 0.0284642 1.88269e-17)
(0.849672 0.0364729 1.99791e-17)
(0.857845 0.0254121 -6.74862e-17)
(0.845567 0.0413839 4.4968e-17)
(0.831642 0.0204121 -5.88484e-17)
(0.815524 0.0481455 1.1855e-17)
(0.833607 -0.0115129 -3.90987e-18)
(0.762965 0.112823 -1.78889e-17)
(0.971521 -0.640197 -1.4885e-17)
(0.857569 -0.00618286 -2.63589e-16)
(0.849744 0.0363259 -2.79837e-17)
(0.850392 0.0122812 -2.14595e-16)
(0.839596 0.0328337 4.76793e-18)
(0.853189 0.0174184 -2.45916e-16)
(0.85519 0.0302278 -1.10328e-16)
(0.863266 0.0217547 -1.46802e-16)
(0.866301 0.0298701 -1.20167e-16)
(0.855434 0.0219077 7.73971e-18)
(0.856246 0.0315132 1.05401e-16)
(0.842465 0.0230607 6.18912e-17)
(0.841934 0.0309761 -1.11519e-16)
(0.829451 0.0222826 -1.34241e-16)
(0.836945 0.0303251 2.37457e-17)
(0.831105 0.0224874 3.65794e-16)
(0.841999 0.030466 4.19607e-16)
(0.838907 0.0228841 -7.16562e-18)
(0.854273 0.0303059 -2.11567e-16)
(0.852202 0.0236689 -1.67916e-16)
(0.864136 0.0312169 -3.22733e-16)
(0.861392 0.0238754 -2.12068e-16)
(0.871023 0.0327261 1.21563e-16)
(0.868099 0.0230611 9.94068e-17)
(0.87377 0.0331203 1.36613e-17)
(0.862878 0.0238116 -1.08521e-17)
(0.865965 0.0344243 -1.56948e-16)
(0.849891 0.0247035 -7.68963e-17)
(0.8542 0.0349072 1.14446e-16)
(0.843907 0.0252871 1.19755e-16)
(0.849816 0.0355807 -6.22076e-18)
(0.837985 0.0244919 -2.21363e-18)
(0.843739 0.0382997 3.10095e-17)
(0.837511 0.0231809 1.94122e-17)
(0.853706 0.041451 -1.95952e-18)
(0.854878 0.0239124 -7.31785e-17)
(0.850672 0.0452449 9.93018e-17)
(0.829962 0.0234706 -2.51766e-18)
(0.813093 0.0521319 -3.16921e-18)
(0.827474 -0.0019616 -1.98415e-17)
(0.762552 0.116549 -8.91442e-18)
(0.971683 -0.63871 5.43176e-18)
(0.847738 0.0335742 6.67713e-17)
(0.854127 0.00878535 -2.48154e-16)
(0.850747 0.0326302 -8.08736e-17)
(0.841721 0.0204699 -3.36113e-16)
(0.860169 0.0311821 -2.65197e-16)
(0.853807 0.0247396 -2.07737e-16)
(0.869592 0.0306128 1.80232e-16)
(0.859874 0.0294421 3.90617e-16)
(0.862205 0.0305191 2.08632e-16)
(0.853441 0.0291754 -4.4224e-17)
(0.853381 0.0303032 -2.04871e-16)
(0.838008 0.0285914 -1.95006e-16)
(0.840196 0.0296338 4.77284e-17)
(0.827466 0.0289109 9.21555e-17)