/*--------------------------------*- C++ -*----------------------------------*\
| =========                 |                                                 |
| \\      /  F ield         | OpenFOAM: The Open Source CFD Toolbox           |
|  \\    /   O peration     | Version:  2206                                  |
|   \\  /    A nd           | Website:  www.openfoam.com                      |
|    \\/     M anipulation  |                                                 |
\*---------------------------------------------------------------------------*/
FoamFile
{
    version     2.0;
    format      ascii;
    arch        "LSB;label=32;scalar=64";
    class       volScalarField;
    location    "200";
    object      T;
}
// * * * * * * * * * * * * * * * * * * * * * * * * * * * * * * * * * * * * * //

dimensions      [0 0 0 1 0 0 0];

internalField   nonuniform List<scalar> 
93840
(
0.94175
1.02709
0.937581
1.10278
1.02449
0.953308
0.941033
1.08076
1.00394
0.972834
1.01733
1.06684
1.05088
0.955869
0.982561
1.01428
1.04857
1.08958
1.05957
0.968555
0.985426
1.0248
1.03223
1.0486
1.01227
1.10464
1.00674
0.976226
1.00518
1.04119
1.00812
1.04179
1.00859
1.06895
1.01394
0.975416
1.01915
1.00539
1.06198
1.03107
1.04057
0.991244
1.06085
1.01278
0.977338
0.996122
1.02883
1.02216
1.0672
1.03727
1.03638
1.03214
1.04521
1.00951
0.979568
1.01716
0.988725
1.0525
1.02894
1.05441
1.03231
1.04274
1.03189
1.03898
1.01019
0.980831
0.998031
1.01642
1.00239
1.04921
1.03145
1.04616
1.03483
1.03678
1.02868
1.03609
1.00842
0.98236
1.02234
0.984826
1.03588
1.01304
1.04381
1.03081
1.03358
1.02622
1.04168
1.03054
1.0337
1.00943
0.983383
1.00291
1.01706
0.991247
1.03728
1.02191
1.04214
1.01912
1.03701
1.03443
1.03367
1.02595
1.0324
1.00814
0.984716
1.02747
0.987377
1.03426
1.00613
1.03622
1.02392
1.02674
1.02416
1.03127
1.02298
1.03863
1.02844
1.03108
1.00919
0.98562
1.00504
1.02328
0.990206
1.02886
1.01449
1.03348
1.01268
1.03381
1.01855
1.03283
1.03019
1.03216
1.02461
1.03013
1.00809
0.986771
1.02602
0.990771
1.02954
1.00331
1.03097
1.0151
1.02626
1.01689
1.02434
1.02067
1.03089
1.02009
1.03724
1.02741
1.02926
1.00921
0.987614
1.00239
1.02062
0.988757
1.02626
1.00876
1.02667
1.01385
1.02967
1.01001
1.03035
1.01703
1.02906
1.02868
1.03127
1.02416
1.02867
1.00836
0.988621
1.02397
0.988131
1.02937
1.00547
1.02877
1.01314
1.02719
1.01288
1.02155
1.01832
1.02425
1.019
1.03002
1.01771
1.03519
1.02768
1.02815
1.00937
0.989374
1.00183
1.02421
0.993081
1.02836
1.00705
1.02676
1.01311
1.0257
1.0082
1.02874
1.01053
1.02825
1.01388
1.02627
1.02661
1.02922
1.02264
1.02774
1.00876
0.990347
1.02013
0.989422
1.02775
1.00452
1.02857
1.01471
1.02518
1.00987
1.02449
1.01037
1.02325
1.01646
1.02308
1.0181
1.02691
1.01836
1.03422
1.02586
1.02734
1.00971
0.991122
0.994755
1.0185
0.990496
1.0269
1.00763
1.02791
1.01141
1.02555
1.00811
1.02052
1.00972
1.0289
1.00977
1.02683
1.01191
1.02525
1.02544
1.0302
1.02246
1.02698
1.00926
0.99196
1.02145
0.987371
1.02548
1.0048
1.02587
1.01474
1.02462
1.01269
1.02191
1.01185
1.02647
1.01021
1.02506
1.01675
1.02323
1.01844
1.02659
1.01759
1.0332
1.02461
1.02669
1.01012
0.992722
0.996019
1.015
0.989755
1.02373
1.00473
1.02749
1.01009
1.02667
1.00406
1.02455
1.00698
1.02376
1.00932
1.02707
1.00829
1.02671
1.01088
1.02343
1.02498
1.03308
1.02192
1.02634
1.00979
0.993483
1.01706
0.97984
1.023
1.00274
1.02412
1.01168
1.02377
1.01335
1.02051
1.01431
1.02166
1.01056
1.02555
1.0085
1.0263
1.01532
1.02281
1.01715
1.02536
1.01529
1.03356
1.02451
1.02616
1.01068
0.994214
0.993531
1.02069
0.987561
1.02098
1.00235
1.02572
1.01062
1.03096
1.00669
1.02913
1.00728
1.02398
1.00658
1.0241
1.00922
1.02566
1.00793
1.02384
1.01105
1.02369
1.02658
1.03253
1.02156
1.02593
1.01056
0.994976
1.02022
0.985054
1.02099
1.00251
1.02217
1.0104
1.02366
1.0167
1.02082
1.01645
1.01956
1.00839
1.02014
1.0071
1.02484
1.0125
1.02313
1.01188
1.02146
1.01517
1.02237
1.01442
1.03281
1.02438
1.02585
1.01141
0.995669
0.99499
1.01527
0.986924
1.0188
1.00078
1.02483
1.00844
1.03049
1.00948
1.02975
1.00262
1.02913
1.00466
1.02272
1.00621
1.02354
1.00927
1.02325
1.00522
1.02047
1.0114
1.02686
1.02526
1.03057
1.01982
1.0257
1.0116
0.996406
1.02162
0.986185
1.02169
1.00186
1.02254
1.01072
1.02072
1.01924
1.02262
1.01614
1.0186
1.01523
1.01798
1.00976
1.02152
1.00786
1.02327
1.00998
1.02333
1.01154
1.01933
1.01184
1.02088
1.01538
1.03217
1.02364
1.02563
1.01237
0.997135
0.996906
1.01784
0.990255
1.02152
1.00276
1.02404
1.00505
1.02736
1.00856
1.02924
1.00815
1.0292
1.00375
1.02745
1.002
1.02392
1.00713
1.02303
1.0105
1.02313
1.01077
1.02068
1.01189
1.02701
1.0277
1.02952
1.01946
1.02555
1.01277
0.997799
1.02245
0.988827
1.02458
1.00211
1.02125
1.01031
1.01957
1.01845
1.02351
1.0161
1.02346
1.01299
1.01872
1.01516
1.01718
1.00825
1.02028
1.00616
1.02155
1.00675
1.0224
1.00843
1.01707
1.01267
1.01944
1.01563
1.03198
1.0238
1.02553
1.01339
0.998465
0.997248
1.02117
0.993201
1.02204
1.0034
1.02531
1.00699
1.02746
1.00745
1.02886
1.01109
1.02857
1.00396
1.02792
1.00412
1.02596
1.0003
1.02649
1.00743
1.02536
1.00944
1.02312
1.00756
1.0193
1.01096
1.02394
1.02447
1.02823
1.0183
1.0256
1.01415
0.999023
1.02477
0.998444
1.02556
1.00182
1.02062
1.01173
1.0212
1.01753
1.02569
1.01606
1.02461
1.01579
1.02527
1.01474
1.01708
1.01322
1.01819
1.00723
1.02225
1.00838
1.02328
1.00834
1.02208
1.01287
1.01968
1.01253
1.02116
1.01291
1.03116
1.02187
1.02562
1.01461
0.999641
1.00152
1.01804
0.994947
1.02541
1.00645
1.02838
1.01035
1.02561
1.01096
1.02882
1.00905
1.02429
1.00754
1.02955
1.00422
1.02947
1.00327
1.02621
0.999985
1.02618
1.00591
1.02349
1.00563
1.02059
1.01124
1.01855
1.00837
1.02467
1.02428
1.02663
1.01854
1.02572
1.01578
1.0003
1.02419
0.996865
1.02726
1.00441
1.02012
1.01202
1.0226
1.01954
1.02074
1.01502
1.02186
1.01581
1.02385
1.01265
1.02258
1.01562
1.01819
1.01152
1.01799
1.0086
1.02323
1.01093
1.02313
1.01195
1.02037
1.01184
1.01898
1.01373
1.01775
1.01503
1.02483
1.02058
1.02655
1.01037
1.00075
0.99931
1.01979
0.997942
1.0272
1.00466
1.02805
1.01183
1.02612
1.01596
1.02307
1.00996
1.02548
1.01019
1.0239
1.0095
1.02658
1.00604
1.0299
1.00281
1.02759
1.00449
1.024
1.00829
1.02345
1.0092
1.02069
1.00893
1.01852
1.00989
1.02147
1.0233
1.02668
1.01888
1.03295
1.01067
1.00127
1.02304
0.994458
1.02784
1.00541
1.02036
1.01272
1.02398
1.01836
1.01983
1.01158
1.02261
1.0131
1.02113
1.01374
1.02116
1.01386
1.0231
1.015
1.01959
1.01122
1.02006
1.01422
1.02146
1.00868
1.02076
1.00955
1.01989
1.01109
1.01807
1.01256
1.02035
1.01488
1.02589
1.01649
1.03166
1.01264
1.00176
0.997099
1.0212
1.00371
1.02582
1.00219
1.02661
1.01157
1.02686
1.01481
1.0234
1.0094
1.0234
1.00845
1.02612
1.00989
1.02482
1.00751
1.0243
1.00416
1.02162
0.999615
1.02431
1.00282
1.02263
1.00779
1.02074
1.00759
1.02003
1.00834
1.01767
1.00868
1.02375
1.01785
1.0229
1.01883
1.0302
1.01244
1.00228
1.02328
1.00048
1.023
1.00268
1.01839
1.01142
1.02242
1.01778
1.02271
1.01566
1.025
1.0102
1.02137
1.01074
1.01939
1.01502
1.02231
1.01259
1.02178
1.01322
1.01724
1.01306
1.01842
1.01142
1.0221
1.00933
1.02114
1.00922
1.01953
1.01377
1.01813
1.00998
1.02253
1.01892
1.02504
1.01971
1.02928
1.01444
1.00278
1.00107
1.01289
1.00418
1.02351
0.999556
1.02406
1.01019
1.0255
1.01558
1.02188
1.01219
1.02562
1.01007
1.02464
1.00984
1.02743
1.00844
1.02475
1.00965
1.02151
1.00799
1.02112
1.00535
1.02076
1.00628
1.02007
1.00938
1.02079
1.00981
1.01813
1.00959
1.01886
1.00828
1.02337
1.02037
1.02531
1.01805
1.0295
1.00784
1.00309
1.01481
0.994233
1.01621
0.999219
1.01561
1.00791
1.0201
1.01554
1.02714
1.01213
1.02157
1.01177
1.02458
1.011
1.0236
1.01009
1.02233
1.01173
1.02198
1.01392
1.02371
1.00961
1.02066
1.01557
1.01991
1.01355
1.01822
1.01415
1.01961
1.0121
1.01703
1.0112
1.01669
1.01099
1.02136
1.01185
1.02406
1.01787
1.03478
1.00952
1.0035
0.992942
1.01084
0.997177
1.02059
0.997909
1.02056
1.01028
1.02428
1.01792
1.02124
1.01853
1.02099
1.01016
1.02573
1.01213
1.02662
1.00752
1.02723
1.01015
1.02031
1.01065
1.02354
1.00834
1.01902
1.0031
1.01755
1.00718
1.0172
1.0104
1.01818
1.01065
1.01698
1.00857
1.01786
1.00751
1.02223
1.0206
1.02759
1.01566
1.03376
1.01024
1.0039
1.01776
0.988791
1.01672
1.00122
1.0142
1.00537
1.01791
1.01483
1.0284
1.01739
1.0223
1.01289
1.02155
1.01062
1.02194
1.01414
1.02223
1.0118
1.02408
1.0126
1.01921
1.01588
1.02274
1.01392
1.01871
1.01466
1.01562
1.0138
1.01784
1.01334
1.01791
1.01071
1.01671
1.01012
1.01757
1.0094
1.02092
1.0133
1.0289
1.01649
1.03249
1.01165
1.00422
0.993447
1.01229
0.999869
1.01753
0.996357
1.01889
1.00962
1.02203
1.02008
1.02341
1.01806
1.02112
1.0154
1.02364
1.01388
1.02185
1.01164
1.02541
1.0112
1.02291
1.0129
1.01859
1.01373
1.02172
1.01095
1.01811
1.00665
1.01466
1.01173
1.01685
1.01011
1.01775
1.00919
1.01658
1.01057
1.01669
1.00863
1.02216
1.0155
1.02779
1.01746
1.03108
1.01194
1.00457
1.01267
0.991644
1.01159
1.00019
1.01308
1.00377
1.0173
1.01332
1.02341
1.01781
1.02301
1.01524
1.02256
1.0112
1.02065
1.01463
1.02231
1.01166
1.02363
1.01365
1.02216
1.01513
1.01838
1.01431
1.0208
1.01478
1.01736
1.01806
1.01401
1.01189
1.01641
1.01127
1.01765
1.00976
1.01546
1.00936
1.01547
1.01083
1.0186
1.01213
1.03089
1.01794
1.03024
1.01342
1.00496
1.00208
1.01178
0.999244
1.0178
0.998109
1.01875
1.00814
1.0219
1.01798
1.02233
1.01768
1.02056
1.01555
1.02368
1.01187
1.02196
1.01718
1.0224
1.01329
1.02183
1.01112
1.02179
1.01451
1.01783
1.01204
1.01982
1.0104
1.01668
1.0112
1.01415
1.01177
1.01608
1.01133
1.0171
1.01004
1.01576
1.01034
1.0142
1.00912
1.02143
1.01654
1.03222
1.01959
1.03041
1.00813
1.00521
1.00987
0.995823
1.0085
1.00031
1.01356
1.0037
1.0172
1.01406
1.02207
1.01502
1.02319
1.01732
1.02291
1.0118
1.02071
1.01402
1.02073
1.01416
1.0207
1.01245
1.02242
1.01325
1.02124
1.01598
1.01727
1.01726
1.01902
1.01339
1.01584
1.01287
1.01379
1.01083
1.01634
1.01039
1.01656
1.01153
1.01561
1.00975
1.01321
1.00817
1.02153
1.0135
1.03134
1.01786
1.03499
1.00907
1.0055
0.997625
1.01026
1.00128
1.01765
0.998495
1.01738
1.0064
1.02256
1.01706
1.02024
1.01569
1.0221
1.01607
1.02458
1.01327
1.02131
1.01632
1.01964
1.01591
1.0222
1.01376
1.0216
1.01406
1.02065
1.01582
1.01699
1.01578
1.01853
1.01337
1.01573
1.01242
1.01328
1.00968
1.01887
1.01079
1.01609
1.00969
1.0144
1.00849
1.01487
1.00738
1.02231
1.01324
1.03248
1.01541
1.0338
1.0101
1.0058
1.01486
1.00383
1.00935
1.00063
1.01617
1.00479
1.01668
1.01329
1.02293
1.00936
1.02053
1.01272
1.02461
1.01215
1.02103
1.01547
1.02016
1.01496
1.01973
1.01568
1.02082
1.01309
1.02084
1.01846
1.0202
1.01732
1.0165
1.01582
1.01827
1.01258
1.01566
1.01099
1.01359
1.00837
1.01861
1.00964
1.01574
1.0102
1.0134
1.00698
1.01639
1.00702
1.02138
1.0129
1.03476
1.01704
1.03235
1.0106
1.00616
0.997616
1.00951
1.00007
1.0166
1.00023
1.01614
1.00546
1.02198
1.0174
1.02044
1.01377
1.02122
1.01372
1.0238
1.01347
1.02441
1.01427
1.01792
1.01396
1.01847
1.01519
1.02203
1.0151
1.02023
1.0152
1.01976
1.01195
1.01588
1.01569
1.01858
1.01203
1.01631
1.00953
1.01653
1.00739
1.0196
1.00964
1.01578
1.00976
1.01546
1.00592
1.01713
1.00628
1.02281
1.0193
1.03282
1.01746
1.03128
1.01168
1.00647
1.0157
1.00466
1.00566
1.00424
1.01824
1.00467
1.01679
1.01159
1.02128
1.00899
1.02287
1.00947
1.02149
1.01183
1.02426
1.01618
1.0198
1.01499
1.01935
1.0137
1.01906
1.01447
1.01988
1.01732
1.01963
1.01931
1.01873
1.01708
1.01567
1.01514
1.01836
1.01136
1.01644
1.0088
1.01807
1.00665
1.01902
1.00898
1.01541
1.00874
1.01539
1.00527
1.01753
1.00508
1.02285
1.01498
1.03197
1.01697
1.03151
1.00656
1.00669
1.00038
1.00736
0.999938
1.01662
1.00061
1.01553
1.00595
1.01897
1.0159
1.01817
1.01466
1.0214
1.01157
1.0219
1.01395
1.02506
1.01395
1.02072
1.01456
1.01848
1.01432
1.01935
1.01591
1.02005
1.01587
1.01912
1.01535
1.01839
1.01596
1.01633
1.01468
1.01781
1.01016
1.01751
1.008
1.01759
1.006
1.01857
1.00866
1.01592
1.00769
1.01509
1.00484
1.01857
1.00423
1.02113
1.01862
1.03407
1.01809
1.03519
1.00741
1.00696
1.01324
0.998194
1.00855
1.00316
1.01902
1.00447
1.01664
1.00962
1.02075
1.00789
1.0237
1.01125
1.02083
1.01018
1.0223
1.01281
1.02044
1.01562
1.01908
1.01161
1.0185
1.01354
1.01829
1.01769
1.01929
1.01651
1.01942
1.0161
1.01823
1.01503
1.01582
1.0138
1.01782
1.00883
1.01863
1.00669
1.01962
1.00551
1.01966
1.00772
1.01673
1.00663
1.01793
1.00459
1.01678
1.00492
1.02347
1.01383
1.03154
1.01625
1.03396
1.00838
1.00727
1.00375
1.00853
1.00126
1.01788
1.00397
1.0143
1.00589
1.01436
1.01359
1.01533
1.0123
1.01889
1.01383
1.01991
1.0125
1.02117
1.01526
1.02508
1.01503
1.02194
1.01409
1.01855
1.01394
1.01869
1.01616
1.01836
1.01638
1.02022
1.01569
1.01906
1.0147
1.01629
1.01262
1.02042
1.00814
1.02016
1.00598
1.01883
1.00502
1.01906
1.00624
1.01778
1.00577
1.0167
1.00266
1.01844
1.00488
1.01981
1.02102
1.03315
1.01602
1.03255
1.00895
1.00748
1.01046
0.990928
1.00865
1.0049
1.01792
1.00136
1.01617
1.0069
1.02244
1.01083
1.02189
1.00931
1.02076
1.01225
1.01965
1.01224
1.02059
1.01474
1.02077
1.01442
1.02022
1.01293
1.01753
1.0148
1.01736
1.01634
1.01888
1.01559
1.01991
1.01488
1.01874
1.01412
1.01726
1.01175
1.0213
1.00926
1.01962
1.00827
1.01785
1.00408
1.02064
1.00495
1.01905
1.00521
1.01778
1.00309
1.01734
1.00489
1.02327
1.01158
1.03221
1.01708
1.03128
1.00956
1.00774
1.00107
1.00921
1.00634
1.01495
1.00289
1.01294
1.00681
1.01108
1.01308
1.01439
1.01332
1.01795
1.01556
1.01728
1.0128
1.01848
1.01255
1.02139
1.01529
1.02158
1.01563
1.0188
1.01392
1.01813
1.0122
1.0178
1.01586
1.01977
1.01514
1.02066
1.01419
1.01755
1.0135
1.0175
1.01127
1.02128
1.00922
1.01875
1.007
1.02007
1.00311
1.02112
1.00502
1.01857
1.00467
1.01788
1.00329
1.01907
1.0054
1.01931
1.02239
1.03428
1.01755
1.03013
1.01008
1.00792
1.01168
0.993186
1.00493
1.00062
1.01771
0.999526
1.01749
1.00326
1.02105
1.01283
1.02026
1.01309
1.02002
1.01066
1.01729
1.01267
1.01784
1.01319
1.01891
1.0151
1.02087
1.01611
1.02005
1.01398
1.01731
1.01539
1.01705
1.01524
1.01917
1.01497
1.02128
1.01444
1.01869
1.01275
1.01825
1.01081
1.02189
1.00987
1.01794
1.0071
1.01869
1.00263
1.02223
1.00581
1.01988
1.00395
1.01803
1.00369
1.01771
1.00402
1.02428
1.01096
1.03308
1.0178
1.029
1.0104
1.0082
0.997591
1.00708
1.00225
1.01678
1.00492
1.01165
1.00761
1.0098
1.0139
1.01495
1.01347
1.01681
1.01247
1.01757
1.016
1.01727
1.01375
1.01722
1.0127
1.01914
1.01466
1.01999
1.01574
1.01865
1.0141
1.01704
1.0116
1.01748
1.0149
1.01995
1.01444
1.02105
1.01389
1.01832
1.01208
1.02059
1.01066
1.02136
1.01214
1.01806
1.00808
1.0192
1.00262
1.02216
1.0052
1.02004
1.00334
1.01875
1.00141
1.01835
1.00569
1.01919
1.02261
1.03503
1.01909
1.0283
1.01111
1.00845
1.0124
0.995412
1.00285
0.998653
1.01434
0.998361
1.01874
1.00115
1.02157
1.0134
1.01961
1.01617
1.01444
1.01288
1.01742
1.0127
1.01793
1.01394
1.0186
1.0128
1.01929
1.01588
1.01954
1.01599
1.01943
1.0141
1.01666
1.01558
1.01824
1.01467
1.01979
1.01416
1.02005
1.01491
1.01704
1.01096
1.01907
1.01226
1.02112
1.01355
1.01879
1.00745
1.02118
1.00356
1.02224
1.00451
1.02043
1.00379
1.01845
1.00228
1.01969
1.00666
1.0244
1.01004
1.03409
1.017
1.02851
1.00732
1.00868
0.999228
1.00289
0.994017
1.01681
1.00064
1.01006
1.0091
1.00911
1.01659
1.01554
1.01655
1.01567
1.0145
1.01875
1.0135
1.01784
1.01464
1.01846
1.01362
1.01761
1.01315
1.01893
1.01466
1.01952
1.01462
1.01827
1.01368
1.01709
1.01136
1.01832
1.01443
1.01991
1.01446
1.01978
1.01555
1.01906
1.01022
1.02075
1.01442
1.02073
1.01352
1.01717
1.0062
1.01833
1.00311
1.02137
1.00538
1.02037
1.00483
1.01739
1.00237
1.01864
1.00343
1.021
1.02051
1.03442
1.01757
1.03236
1.00761
1.00893
1.00996
0.989945
1.00676
0.998911
1.0123
1.00025
1.02147
1.00157
1.02186
1.01385
1.01934
1.01527
1.01678
1.01476
1.01698
1.01549
1.0168
1.014
1.01774
1.01384
1.01733
1.01241
1.01829
1.0144
1.01916
1.01465
1.01879
1.01353
1.01744
1.01442
1.01955
1.01372
1.01992
1.0145
1.01916
1.01488
1.02074
1.01091
1.01985
1.01387
1.02008
1.01344
1.01585
1.00642
1.02074
1.00411
1.02141
1.00536
1.02093
1.00499
1.01792
1.00148
1.02039
1.00499
1.02581
1.01579
1.03436
1.01697
1.03135
1.0085
1.00917
0.996494
1.00181
0.993808
1.01626
1.00324
1.01187
1.0116
1.00791
1.01862
1.0156
1.01742
1.01889
1.01649
1.01775
1.01316
1.01625
1.01434
1.01775
1.01425
1.01788
1.01506
1.01939
1.01139
1.01955
1.01348
1.02051
1.01462
1.01947
1.01292
1.01842
1.01216
1.01892
1.01397
1.02046
1.01524
1.01859
1.0146
1.02048
1.01086
1.01944
1.01603
1.01933
1.01373
1.01857
1.00677
1.01848
1.00578
1.02067
1.00573
1.02035
1.00421
1.01849
1.00021
1.01874
1.00626
1.02241
1.01749
1.03438
1.01845
1.03023
1.00852
1.00943
1.01117
0.987055
1.00277
1.00156
1.01066
1.00203
1.02196
1.00268
1.02209
1.01466
1.0189
1.01539
1.01979
1.01175
1.01681
1.01573
1.01634
1.01438
1.01678
1.01507
1.01771
1.01275
1.01781
1.01279
1.01763
1.0131
1.01977
1.01382
1.01888
1.01229
1.01882
1.01376
1.01958
1.01437
1.02028
1.01643
1.01841
1.01399
1.02154
1.01135
1.01902
1.01625
1.01886
1.01334
1.01723
1.00741
1.01975
1.00469
1.02059
1.00738
1.01974
1.00466
1.01836
0.998632
1.01921
1.00483
1.02785
1.01576
1.03411
1.01913
1.02939
1.00957
1.00966
0.993426
1.00311
0.994608
1.01472
1.00175
1.01289
1.01268
1.008
1.01988
1.01479
1.01493
1.01947
1.01773
1.01902
1.01733
1.01723
1.01578
1.01652
1.01603
1.01854
1.01323
1.01837
1.01269
1.01707
1.01151
1.01981
1.01493
1.0203
1.01335
1.02092
1.0127
1.01999
1.0126
1.0197
1.01411
1.02001
1.01593
1.01818
1.01327
1.02087
1.01369
1.01851
1.01523
1.01875
1.01314
1.01649
1.00576
1.01867
1.00557
1.01966
1.00708
1.01939
1.00393
1.01788
1.0024
1.02054
1.00495
1.02454
1.01708
1.03394
1.01897
1.02953
1.00537
1.00992
1.01262
0.990659
1.00138
1.0021
1.01324
1.00378
1.02319
1.0036
1.02151
1.01285
1.01913
1.01482
1.01883
1.01551
1.0193
1.01594
1.01872
1.01491
1.01596
1.01473
1.01734
1.01241
1.01724
1.01331
1.01621
1.01217
1.01892
1.01438
1.02025
1.01267
1.01871
1.01231
1.0193
1.01465
1.02039
1.01486
1.02026
1.0161
1.01765
1.01323
1.02085
1.01266
1.01786
1.01694
1.01836
1.01288
1.01953
1.00846
1.01842
1.00652
1.01953
1.00853
1.01929
1.00378
1.01973
1.00229
1.02026
1.00477
1.02643
1.01928
1.03387
1.0188
1.03276
1.00609
1.01012
0.995726
1.00308
0.997601
1.01455
1.00223
1.01341
1.01316
1.00915
1.01904
1.01493
1.01264
1.01878
1.01514
1.02097
1.01824
1.01926
1.01423
1.01785
1.01171
1.01686
1.01551
1.01835
1.01442
1.01798
1.01508
1.01776
1.01378
1.01812
1.01439
1.02165
1.01309
1.02036
1.01465
1.01961
1.01271
1.01961
1.01599
1.01945
1.01607
1.01783
1.01422
1.02054
1.0138
1.01725
1.01578
1.0182
1.01262
1.01901
1.00699
1.01824
1.006
1.01872
1.00906
1.01955
1.00296
1.01751
1.00267
1.02136
1.00756
1.02517
1.02318
1.03301
1.01786
1.03183
1.00668
1.01039
1.01311
0.992873
1.00108
1.00237
1.01136
1.00434
1.02422
1.00512
1.0217
1.01106
1.02018
1.01449
1.01898
1.01501
1.01943
1.01664
1.01849
1.01776
1.01897
1.01525
1.01671
1.01377
1.01818
1.01375
1.01738
1.01427
1.01662
1.01343
1.01865
1.01519
1.0207
1.01382
1.01794
1.01382
1.01869
1.01513
1.02072
1.01524
1.01959
1.01563
1.01815
1.01434
1.02025
1.0143
1.01672
1.01619
1.01782
1.01206
1.01857
1.00711
1.01793
1.00683
1.01799
1.00875
1.01993
1.00389
1.01902
1.00441
1.01778
1.00925
1.02459
1.01518
1.03204
1.01767
1.03063
1.00716
1.01058
0.999822
1.0044
0.998183
1.01276
1.00016
1.01471
1.01662
1.01067
1.0186
1.01353
1.01256
1.01732
1.01414
1.02065
1.01486
1.02019
1.01789
1.01933
1.01314
1.01752
1.01312
1.01783
1.01272
1.01922
1.01449
1.0166
1.01439
1.01677
1.01343
1.01749
1.01406
1.02055
1.01392
1.01938
1.01569
1.01976
1.01415
1.01946
1.01638
1.01941
1.01648
1.01927
1.0142
1.01974
1.01399
1.01617
1.01669
1.01834
1.01145
1.02014
1.00626
1.01767
1.00896
1.01765
1.00915
1.01988
1.00526
1.01791
1.00516
1.0215
1.00661
1.02447
1.02099
1.0323
1.01742
1.02944
1.00772
1.01083
1.01164
0.994574
1.00402
0.999867
1.01265
1.00606
1.02464
1.00604
1.02046
1.01021
1.02094
1.01417
1.02085
1.01339
1.01929
1.01617
1.01898
1.01713
1.01917
1.01703
1.0195
1.01405
1.01646
1.01395
1.01713
1.01333
1.01645
1.01346
1.01659
1.01227
1.01853
1.01374
1.02137
1.01491
1.01855
1.01448
1.01888
1.01436
1.02017
1.01671
1.01891
1.01612
1.01832
1.01478
1.01908
1.01408
1.01566
1.01599
1.01836
1.01095
1.02127
1.00787
1.01734
1.00737
1.01713
1.009
1.02001
1.00642
1.01748
1.00668
1.01586
1.00771
1.02291
1.01912
1.03434
1.01712
1.02833
1.0082
1.01105
1.00251
1.00452
0.999112
1.01462
1.00746
1.01559
1.01678
1.00981
1.01956
1.01341
1.01352
1.01563
1.01228
1.0177
1.01655
1.02003
1.01582
1.02114
1.01599
1.02021
1.01397
1.01843
1.01436
1.01878
1.01572
1.01901
1.01404
1.01664
1.01303
1.01663
1.01262
1.01762
1.01302
1.01993
1.01577
1.01862
1.01635
1.02011
1.01392
1.01992
1.01743
1.01893
1.01639
1.01891
1.01556
1.01846
1.01454
1.01533
1.01554
1.0186
1.01054
1.02007
1.00797
1.01686
1.0104
1.01645
1.00847
1.01988
1.00685
1.01671
1.00576
1.02043
1.00792
1.02356
1.01813
1.03465
1.01733
1.02772
1.00897
1.01134
1.01089
0.996835
1.00253
0.998579
1.01166
1.00518
1.02432
1.00592
1.02082
1.00934
1.01967
1.01192
1.02
1.01594
1.02075
1.0159
1.01915
1.01706
1.01967
1.01769
1.01984
1.01981
1.0187
1.01494
1.01727
1.01354
1.01736
1.01272
1.01683
1.01308
1.01554
1.01433
1.01803
1.01372
1.02067
1.01548
1.01865
1.01516
1.01908
1.01429
1.01969
1.01686
1.01821
1.01617
1.01912
1.01437
1.0179
1.01397
1.01515
1.01501
1.01784
1.01023
1.02047
1.0086
1.01622
1.00786
1.01604
1.00846
1.01964
1.00866
1.01596
1.00603
1.01707
1.00709
1.02364
1.01761
1.03399
1.01896
1.02789
1.00591
1.01159
1.00279
1.005
1.00148
1.01546
1.00511
1.01452
1.01608
1.00906
1.02043
1.01198
1.01321
1.01458
1.01542
1.01698
1.01391
1.01831
1.01484
1.02047
1.01557
1.02059
1.01588
1.01926
1.01373
1.01839
1.01227
1.01747
1.01361
1.01746
1.01536
1.01705
1.01288
1.0168
1.01135
1.0182
1.01323
1.02041
1.01588
1.01842
1.01601
1.02027
1.01394
1.01956
1.01782
1.01818
1.01606
1.0184
1.01504
1.01749
1.01367
1.01518
1.01442
1.01835
1.01008
1.0212
1.00951
1.0156
1.00998
1.01603
1.00887
1.0193
1.00864
1.01575
1.00508
1.0203
1.00573
1.02407
1.0159
1.03382
1.01915
1.03116
1.00634
1.01185
1.01109
0.998725
1.00238
0.999004
1.01461
1.00515
1.02308
1.00638
1.02132
1.00949
1.01836
1.01
1.01786
1.01041
1.01823
1.01539
1.01875
1.01513
1.01918
1.01701
1.01984
1.01956
1.01887
1.01877
1.0188
1.01965
1.01738
1.01526
1.01723
1.01296
1.01693
1.01209
1.01478
1.01324
1.01825
1.01264
1.0198
1.01701
1.01821
1.01514
1.01851
1.01547
1.01924
1.01718
1.01804
1.01623
1.01858
1.01468
1.01771
1.01333
1.01541
1.01384
1.01865
1.00979
1.02056
1.00824
1.01526
1.00709
1.01595
1.00947
1.01895
1.00788
1.01587
1.00402
1.02012
1.00434
1.02512
1.01446
1.0334
1.01678
1.0303
1.00745
1.01217
1.0049
1.00632
1.00126
1.01593
1.00932
1.01368
1.01652
1.01021
1.01982
1.01075
1.01138
1.01156
1.01415
1.01512
1.01676
1.01737
1.01592
1.01885
1.01527
1.01968
1.01581
1.01931
1.01473
1.02003
1.01318
1.01934
1.01225
1.01621
1.01324
1.01704
1.0129
1.01722
1.01245
1.01708
1.01168
1.01855
1.01351
1.01979
1.01678
1.01805
1.01657
1.01995
1.0133
1.01917
1.01751
1.01841
1.01556
1.0185
1.01427
1.01732
1.01282
1.01532
1.01325
1.01858
1.00989
1.02001
1.00885
1.01506
1.00967
1.01702
1.00948
1.01844
1.00807
1.01534
1.00301
1.02062
1.00345
1.02465
1.01854
1.03361
1.01698
1.02928
1.00763
1.01241
1.00985
0.99804
1.00116
1.00268
1.01043
1.00365
1.02376
1.00575
1.01891
1.00996
1.01699
1.00992
1.01601
1.01043
1.01826
1.01209
1.01894
1.0151
1.02009
1.01567
1.01991
1.01833
1.01852
1.01935
1.01891
1.01828
1.01685
1.01792
1.01738
1.01428
1.01818
1.0121
1.01675
1.01247
1.01613
1.0125
1.01888
1.01314
1.01926
1.0173
1.01782
1.01518
1.01863
1.01571
1.01909
1.0171
1.01869
1.01559
1.01841
1.01392
1.0173
1.01224
1.01489
1.01271
1.01956
1.01094
1.01994
1.00878
1.01528
1.00808
1.017
1.00939
1.01796
1.00809
1.01634
1.00233
1.02159
1.00554
1.02599
1.01536
1.03309
1.01777
1.0285
1.00871
1.01268
1.00555
1.0077
1.00072
1.0139
1.01419
1.01422
1.01594
1.00855
1.01763
1.01129
1.01036
1.00871
1.01196
1.01341
1.01238
1.01475
1.01641
1.01685
1.01638
1.01807
1.01668
1.01933
1.01693
1.01927
1.01486
1.01909
1.01644
1.01799
1.01532
1.01772
1.01215
1.01672
1.01284
1.01674
1.0121
1.01618
1.01149
1.017
1.01364
1.01857
1.01615
1.01812
1.01648
1.01905
1.01376
1.01899
1.01755
1.01863
1.01507
1.01881
1.01362
1.01703
1.01173
1.01597
1.01211
1.02055
1.01129
1.01967
1.00942
1.01429
1.00882
1.01649
1.00972
1.0176
1.00785
1.01654
1.00187
1.0213
1.00483
1.02514
1.0184
1.03216
1.01743
1.02862
1.00498
1.01294
1.00868
0.999392
1.00105
1.00532
1.01336
1.00239
1.02259
1.00397
1.01773
1.01138
1.01444
1.00656
1.01601
1.0066
1.01483
1.01196
1.01784
1.01317
1.01894
1.01443
1.01841
1.01575
1.01941
1.01701
1.019
1.01899
1.0194
1.01698
1.01708
1.01577
1.01703
1.01473
1.01839
1.0125
1.01782
1.01165
1.01624
1.01299
1.0189
1.01407
1.01817
1.01788
1.01871
1.01431
1.01847
1.01446
1.01958
1.01635
1.01881
1.01523
1.01896
1.01348
1.01718
1.01118
1.01626
1.0116
1.02145
1.01147
1.01937
1.0117
1.01414
1.00863
1.01739
1.00938
1.01729
1.00804
1.01583
1.00183
1.01962
1.00525
1.02695
1.01459
1.03111
1.01914
1.03147
1.00553
1.01317
1.00464
1.00814
0.997163
1.01234
1.00966
1.01335
1.01471
1.0074
1.01607
1.01143
1.00935
1.00805
1.01108
1.01017
1.01289
1.01432
1.0127
1.01436
1.01686
1.01791
1.01786
1.01833
1.01682
1.01895
1.0179
1.02066
1.01511
1.01962
1.01728
1.0172
1.01579
1.01848
1.01289
1.01858
1.01122
1.01698
1.01071
1.01693
1.01136
1.01712
1.01288
1.01801
1.01564
1.01835
1.01656
1.01861
1.01346
1.01923
1.01742
1.01953
1.01505
1.01894
1.01321
1.01678
1.01053
1.01652
1.01111
1.02292
1.01078
1.01934
1.00739
1.01426
1.00668
1.01666
1.00939
1.01678
1.00823
1.01667
1.0022
1.02096
1.00902
1.02498
1.01971
1.03106
1.01717
1.0306
1.00616
1.01347
1.00831
1.00219
1.00609
1.00839
1.01461
1.00358
1.02125
1.00291
1.01583
1.0108
1.01375
1.00684
1.01528
1.00749
1.01587
1.00815
1.01356
1.01242
1.01789
1.01346
1.0188
1.01491
1.01888
1.0152
1.01945
1.0161
1.01991
1.01927
1.01939
1.01766
1.01704
1.01519
1.01749
1.01393
1.01819
1.01231
1.01733
1.01198
1.01548
1.01404
1.01755
1.01662
1.0182
1.01635
1.01842
1.01445
1.01841
1.01408
1.01972
1.016
1.01913
1.01486
1.01865
1.01284
1.01694
1.00985
1.01852
1.01069
1.02343
1.0101
1.01874
1.00757
1.01365
1.01024
1.01708
1.00955
1.01618
1.00736
1.01749
1.00274
1.01919
1.00919
1.02612
1.01852
1.03013
1.01872
1.02951
1.00639
1.01366
1.00321
1.00824
0.995319
1.01383
1.01002
1.0125
1.01274
1.00664
1.01453
1.01116
1.00888
1.00816
1.00592
1.00837
1.01058
1.01105
1.01222
1.01276
1.01352
1.01486
1.01612
1.01749
1.01801
1.01896
1.01662
1.01933
1.01694
1.02012
1.01753
1.01937
1.01668
1.01709
1.01534
1.01917
1.0136
1.01965
1.01295
1.01771
1.01215
1.01825
1.01151
1.01732
1.01233
1.01801
1.01555
1.01878
1.0152
1.01814
1.01358
1.01927
1.01668
1.02006
1.01423
1.01918
1.01229
1.01805
1.0092
1.01943
1.01038
1.02371
1.01181
1.01825
1.0092
1.01281
1.00817
1.01635
1.00943
1.01581
1.00685
1.01829
1.00412
1.0192
1.00894
1.0264
1.01946
1.029
1.01833
1.02858
1.00697
1.01392
1.00831
1.00357
1.00614
1.00724
1.01093
1.00227
1.01812
1.00171
1.01358
1.01009
1.01405
1.00651
1.01365
1.00699
1.01436
1.00768
1.01506
1.01002
1.01422
1.01144
1.01808
1.01451
1.0178
1.01462
1.0191
1.01598
1.0198
1.01626
1.01898
1.01818
1.01859
1.01608
1.01794
1.01504
1.01721
1.01392
1.01975
1.01087
1.01722
1.01059
1.01609
1.01473
1.01689
1.01586
1.01779
1.01566
1.01896
1.01459
1.01803
1.01436
1.01969
1.01583
1.02029
1.01344
1.01955
1.01163
1.01796
1.00861
1.02063
1.01037
1.0233
1.01141
1.01803
1.00954
1.01226
1.01
1.01581
1.00937
1.01564
1.00639
1.01884
1.00589
1.01985
1.01057
1.02548
1.02145
1.02766
1.01927
1.02764
1.00702
1.01412
1.00131
1.00665
0.996545
1.01378
1.01073
1.0114
1.012
1.00744
1.01337
1.0114
1.00952
1.00735
1.00526
1.00975
1.00968
1.01003
1.01157
1.01101
1.01213
1.01358
1.01442
1.0151
1.01517
1.0177
1.01829
1.01881
1.01747
1.01995
1.01721
1.01973
1.01824
1.01764
1.01573
1.01911
1.01445
1.01935
1.01472
1.01869
1.01262
1.01679
1.01269
1.01664
1.01242
1.01674
1.01391
1.01773
1.01554
1.01857
1.01447
1.01847
1.01349
1.01982
1.01626
1.02021
1.01278
1.01987
1.01091
1.01784
1.00821
1.0224
1.0113
1.02271
1.01118
1.01761
1.01255
1.01197
1.00793
1.01567
1.0093
1.01576
1.00617
1.01824
1.00681
1.01964
1.01151
1.02574
1.02042
1.02844
1.01893
1.02687
1.00763
1.01436
1.01016
1.00084
1.00827
1.00642
1.01239
1.00152
1.01735
1.0015
1.01188
1.00929
1.01357
1.00777
1.01229
1.00734
1.01015
1.00661
1.01342
1.00932
1.01312
1.01162
1.01396
1.01077
1.01591
1.01528
1.01825
1.01517
1.01906
1.0164
1.02028
1.01757
1.02017
1.01843
1.0188
1.01789
1.01848
1.01439
1.01812
1.01336
1.02041
1.01168
1.01684
1.01235
1.01665
1.0153
1.01687
1.01393
1.01757
1.01527
1.01892
1.01421
1.01809
1.01385
1.01999
1.01642
1.02088
1.01242
1.02085
1.01034
1.01991
1.00775
1.02283
1.01257
1.0222
1.01375
1.01702
1.0116
1.01171
1.00955
1.01544
1.00897
1.01566
1.00617
1.01783
1.00822
1.0191
1.01161
1.02554
1.01808
1.0268
1.01999
1.02603
1.0076
1.01457
1.00099
1.00686
0.998757
1.01168
1.008
1.01044
1.01132
1.00676
1.01124
1.01147
1.00971
1.00845
1.00694
1.00927
1.00738
1.00973
1.01022
1.01067
1.01258
1.01253
1.01281
1.01419
1.01502
1.01608
1.01591
1.01807
1.01875
1.01945
1.0183
1.02041
1.01827
1.02052
1.01817
1.01936
1.01749
1.01848
1.01409
1.01805
1.01517
1.01887
1.0123
1.01781
1.01186
1.01635
1.01352
1.01682
1.01429
1.01733
1.01487
1.01926
1.01376
1.01823
1.01356
1.01932
1.01601
1.02042
1.01213
1.02071
1.01
1.01995
1.00724
1.02315
1.01275
1.02182
1.01258
1.01643
1.00907
1.01114
1.00776
1.01554
1.0086
1.01634
1.00619
1.01748
1.00976
1.01847
1.01217
1.0253
1.02422
1.02752
1.01925
1.02561
1.00858
1.0148
1.01061
0.999013
1.00493
1.00847
1.01037
1.00047
1.01624
1.00059
1.0105
1.01093
1.01263
1.00877
1.0108
1.00614
1.01152
1.00702
1.01021
1.00861
1.01196
1.00934
1.01211
1.0116
1.01454
1.01119
1.01683
1.016
1.01779
1.01564
1.01926
1.01633
1.02062
1.01798
1.02019
1.01831
1.01908
1.01693
1.01894
1.01393
1.018
1.01428
1.02002
1.01482
1.01633
1.01258
1.01599
1.01359
1.01661
1.014
1.01725
1.01439
1.01919
1.01321
1.01907
1.01378
1.01995
1.01622
1.02081
1.0118
1.02141
1.00975
1.02095
1.00728
1.0243
1.01361
1.0215
1.01267
1.01602
1.01235
1.01059
1.00822
1.01551
1.00804
1.01636
1.00764
1.01669
1.01063
1.01774
1.0133
1.02521
1.01624
1.02626
1.02116
1.02584
1.0056
1.01507
1.00058
1.00612
0.998679
1.01011
1.00777
1.01041
1.01009
1.00504
1.01054
1.01233
1.00927
1.00959
1.00742
1.00892