/*--------------------------------*- C++ -*----------------------------------*\
| =========                 |                                                 |
| \\      /  F ield         | OpenFOAM: The Open Source CFD Toolbox           |
|  \\    /   O peration     | Version:  2206                                  |
|   \\  /    A nd           | Website:  www.openfoam.com                      |
|    \\/     M anipulation  |                                                 |
\*---------------------------------------------------------------------------*/
FoamFile
{
    version     2.0;
    format      ascii;
    arch        "LSB;label=32;scalar=64";
    class       volScalarField;
    location    "200";
    object      TMean;
}
// * * * * * * * * * * * * * * * * * * * * * * * * * * * * * * * * * * * * * //

dimensions      [0 0 0 1 0 0 0];

internalField   nonuniform List<scalar> 
93840
(
0.995969
1.0348
1.00602
1.07853
1.01754
1.02248
0.916219
1.06491
1.00651
1.02089
0.999099
1.00964
1.03952
0.978357
1.01861
0.995891
1.02207
1.03
1.05051
0.987515
1.02087
1.02175
0.995269
1.02669
0.981847
1.07498
1.00833
1.01239
1.00712
1.02535
0.991329
1.02301
0.995274
1.04374
1.00744
1.00654
1.02183
0.997546
1.0336
1.01009
1.03166
0.986657
1.03746
1.01174
1.00762
1.00174
1.0196
0.99737
1.03302
1.00347
1.02248
1.01291
1.03353
1.00747
1.00491
1.02245
0.994263
1.02832
1.01032
1.03
1.00689
1.03025
1.01382
1.02552
1.01002
1.00865
1.00161
1.02023
0.993819
1.02176
0.998763
1.02494
1.00869
1.021
1.01578
1.02736
1.00845
1.00965
1.02692
0.99718
1.02731
1.00289
1.01895
1.00244
1.01915
1.00822
1.02629
1.016
1.02213
1.00938
1.00911
1.0042
1.02571
0.996103
1.01966
1.00038
1.01786
0.99879
1.01725
1.01239
1.01875
1.01437
1.02612
1.00831
1.01074
1.02662
1.00069
1.03033
1.00581
1.01994
1.00415
1.01715
1.00337
1.01632
1.00847
1.02424
1.01635
1.02117
1.00887
1.01
1.00322
1.02681
1.0005
1.02417
1.00597
1.01918
1.00218
1.01573
1.002
1.01428
1.01101
1.01805
1.01369
1.0249
1.00832
1.0115
1.02497
1.00057
1.02969
1.00888
1.02189
1.00762
1.01902
1.00551
1.01629
1.00441
1.01504
1.00828
1.0231
1.01663
1.02073
1.00865
1.01045
1.00219
1.02593
1.0008
1.02351
1.00599
1.01922
1.00518
1.01791
1.00413
1.01446
1.00217
1.01258
1.01024
1.01785
1.01328
1.02396
1.00844
1.01194
1.02298
1.00012
1.02725
1.00843
1.01973
1.00719
1.0178
1.00656
1.018
1.00632
1.01593
1.00487
1.01407
1.00831
1.02199
1.01704
1.02026
1.00852
1.01091
1.00138
1.02356
1.0008
1.02186
1.00541
1.01819
1.00474
1.01671
1.00531
1.01698
1.00484
1.01377
1.00272
1.01175
1.00959
1.01754
1.01336
1.02301
1.00861
1.01245
1.02162
0.999087
1.0245
1.00818
1.0191
1.00822
1.01707
1.00621
1.01691
1.00639
1.01767
1.00691
1.01577
1.00544
1.01298
1.00818
1.02079
1.01743
1.01988
1.00849
1.01127
0.999856
1.02136
1.00065
1.01956
1.00452
1.01637
1.00388
1.01587
1.00463
1.01585
1.00549
1.01625
1.00533
1.01305
1.00316
1.01139
1.00932
1.01735
1.0134
1.02216
1.00886
1.01314
1.0201
0.997297
1.02151
1.00679
1.01674
1.00678
1.01492
1.00607
1.01633
1.0057
1.01666
1.00673
1.01714
1.00735
1.01567
1.00531
1.01234
1.00821
1.0199
1.01779
1.01948
1.00861
1.01133
0.998486
1.01864
0.999177
1.01616
1.003
1.01362
1.00242
1.01387
1.00336
1.01497
1.00459
1.01433
1.00596
1.01552
1.00578
1.01241
1.00394
1.0109
1.00912
1.01719
1.01363
1.02147
1.00915
1.0138
1.01933
0.996398
1.0182
1.00451
1.01376
1.00472
1.01245
1.00441
1.01356
1.0053
1.01562
1.00675
1.01622
1.00707
1.01687
1.00764
1.01561
1.00565
1.01188
1.00839
1.01903
1.01803
1.01904
1.00845
1.0106
0.9994
1.01813
0.999337
1.01363
1.00176
1.01125
1.00115
1.01149
1.00144
1.01273
1.00349
1.01354
1.00529
1.01402
1.00601
1.01486
1.00617
1.0119
1.00432
1.01045
1.00899
1.01698
1.01363
1.02079
1.00876
1.00978
1.02059
0.99854
1.01835
1.00467
1.01291
1.00471
1.01186
1.00416
1.01185
1.00387
1.01265
1.00589
1.01521
1.00674
1.0155
1.0077
1.01654
1.00828
1.01504
1.00616
1.01167
1.00843
1.01838
1.01807
1.01858
1.0099
1.01176
1.00131
1.01952
1.00158
1.01363
1.00341
1.01194
1.00276
1.01149
1.00122
1.01086
1.00132
1.01196
1.00369
1.01332
1.00528
1.01346
1.00606
1.01461
1.00662
1.01212
1.00432
1.00993
1.00861
1.01687
1.01357
1.01955
1.01083
1.01195
1.02221
1.00104
1.01901
1.0065
1.01414
1.00672
1.01291
1.00517
1.01165
1.00392
1.01134
1.00433
1.01228
1.00558
1.01453
1.0074
1.01536
1.00787
1.01619
1.00835
1.01466
1.00633
1.01157
1.00819
1.01797
1.01802
1.01789
1.00957
1.01307
1.0033
1.02094
1.00414
1.01521
1.00602
1.01322
1.00463
1.01228
1.00307
1.01139
1.00142
1.01026
1.00153
1.01141
1.00371
1.01297
1.00541
1.01317
1.00609
1.01433
1.007
1.01208
1.0046
1.01
1.00825
1.01688
1.01363
1.01957
1.01059
1.01269
1.02376
1.00404
1.02046
1.00883
1.01567
1.00901
1.01444
1.00767
1.01328
1.00537
1.01169
1.00426
1.01096
1.00412
1.01191
1.00563
1.0142
1.0073
1.01512
1.00739
1.01573
1.00841
1.01441
1.00616
1.01141
1.00816
1.01755
1.01781
1.01793
1.00916
1.01353
1.0048
1.02288
1.00757
1.01761
1.00853
1.01515
1.00745
1.01433
1.0053
1.01244
1.00327
1.0112
1.00174
1.01008
1.00169
1.01093
1.00379
1.01272
1.0056
1.01289
1.00663
1.014
1.00739
1.01221
1.00458
1.0098
1.00779
1.01674
1.01351
1.01958
1.0106
1.01307
1.02415
1.0061
1.02221
1.01225
1.01793
1.01206
1.017
1.01094
1.01518
1.00785
1.01341
1.00543
1.01147
1.0043
1.01063
1.00407
1.01157
1.00571
1.01377
1.00735
1.01478
1.00783
1.01546
1.00827
1.0144
1.00634
1.01119
1.00803
1.01712
1.01737
1.01809
1.00955
1.01371
1.00588
1.02381
1.009
1.01905
1.01045
1.0171
1.01008
1.01622
1.00791
1.01464
1.00559
1.01242
1.00368
1.011
1.00215
1.00982
1.00206
1.01053
1.00388
1.01247
1.00584
1.01261
1.00676
1.0137
1.00764
1.01221
1.00477
1.00984
1.0076
1.0168
1.01308
1.01898
1.01113
1.01332
1.02476
1.0081
1.02284
1.01415
1.01918
1.01413
1.01874
1.01329
1.01735
1.01092
1.01542
1.00807
1.0133
1.00581
1.01103
1.00433
1.01041
1.00426
1.01114
1.00585
1.0134
1.00753
1.01437
1.00791
1.01529
1.00834
1.01427
1.00627
1.01103
1.00793
1.01687
1.01673
1.01828
1.00716
1.01384
1.0069
1.02387
1.00978
1.02063
1.01219
1.01861
1.01191
1.01749
1.01026
1.01657
1.00819
1.01471
1.00609
1.01217
1.00429
1.01079
1.00268
1.00936
1.00223
1.01017
1.00411
1.01228
1.00593
1.01255
1.007
1.01325
1.00784
1.01228
1.00501
1.00971
1.00734
1.01693
1.01298
1.02228
1.00862
1.01342
1.02471
1.00903
1.02268
1.01538
1.02003
1.01528
1.01897
1.01375
1.0183
1.01263
1.01737
1.01117
1.01521
1.00831
1.01316
1.00602
1.01115
1.00443
1.01029
1.00445
1.01075
1.00555
1.01295
1.00735
1.01409
1.00791
1.0151
1.00835
1.01417
1.00632
1.01088
1.00781
1.01681
1.01513
1.02082
1.00823
1.01397
1.00677
1.02269
1.01002
1.02148
1.01251
1.01834
1.01132
1.01612
1.01053
1.01744
1.01032
1.01637
1.00868
1.0148
1.00662
1.01174
1.00475
1.01033
1.0031
1.00913
1.00239
1.01006
1.00439
1.01207
1.00625
1.01243
1.00725
1.01322
1.00803
1.01227
1.00525
1.00969
1.00712
1.01684
1.01244
1.02082
1.00953
1.01357
1.02286
1.00764
1.02094
1.01496
1.0188
1.01371
1.01612
1.01114
1.01654
1.01232
1.01778
1.01294
1.01723
1.01127
1.01493
1.00868
1.01319
1.00624
1.01115
1.00419
1.01024
1.00447
1.0107
1.00553
1.01287
1.00747
1.01383
1.00783
1.01463
1.00841
1.01406
1.00631
1.0108
1.00745
1.01676
1.01564
1.01964
1.00914
1.01413
1.00503
1.02006
1.00872
1.01959
1.01003
1.0155
1.00804
1.01278
1.00838
1.01528
1.01035
1.01699
1.01074
1.0164
1.00913
1.01464
1.00713
1.01165
1.00512
1.0103
1.00344
1.00883
1.00251
1.00974
1.0045
1.01189
1.00635
1.01243
1.00734
1.01342
1.00811
1.01242
1.00529
1.00975
1.00698
1.01676
1.01279
1.02035
1.00723
1.01365
1.01962
1.00483
1.01799
1.01251
1.01516
1.01003
1.01207
1.00792
1.01297
1.0096
1.01556
1.01214
1.01741
1.01265
1.01666
1.01156
1.01488
1.00883
1.01297
1.00634
1.01092
1.00432
1.01
1.0045
1.01048
1.0056
1.01266
1.00748
1.01371
1.00782
1.01459
1.00834
1.01404
1.00631
1.01083
1.00722
1.01682
1.01558
1.02246
1.00679
1.01414
1.00337
1.01632
1.00579
1.01598
1.00652
1.01214
1.005
1.01033
1.00589
1.01184
1.00775
1.0147
1.01031
1.01679
1.01105
1.01647
1.00958
1.01456
1.00749
1.01158
1.00544
1.01012
1.00391
1.00881
1.00264
1.00954
1.00457
1.01165
1.00642
1.01236
1.00731
1.0134
1.00813
1.01249
1.00529
1.00985
1.00666
1.01673
1.01141
1.02228
1.00843
1.01376
1.01729
1.00328
1.01551
1.00926
1.01157
1.00742
1.01009
1.00736
1.0111
1.00714
1.01216
1.00913
1.01494
1.0115
1.01715
1.01275
1.01659
1.01167
1.01482
1.00896
1.01281
1.00656
1.0108
1.00435
1.00974
1.00448
1.01026
1.00554
1.0126
1.00749
1.0135
1.00779
1.01444
1.0084
1.01402
1.00629
1.01088
1.00711
1.01677
1.01496
1.02114
1.00787
1.01435
1.00233
1.0141
1.00419
1.01307
1.00437
1.01062
1.00465
1.01071
1.00545
1.01015
1.00553
1.01144
1.0075
1.01428
1.01035
1.01622
1.01144
1.0164
1.0099
1.01448
1.00789
1.01147
1.00571
1.01007
1.00409
1.00879
1.00284
1.00942
1.00461
1.01147
1.00642
1.01232
1.00734
1.01332
1.00808
1.01258
1.00534
1.00996
1.0064
1.01662
1.01224
1.02066
1.00931
1.01403
1.01596
1.00242
1.01335
1.00689
1.0103
1.00748
1.01062
1.00842
1.01076
1.0068
1.01074
1.00688
1.01166
1.00877
1.01452
1.01165
1.01672
1.01278
1.01627
1.01187
1.0146
1.0089
1.0127
1.00657
1.01064
1.00446
1.00949
1.0042
1.01012
1.00539
1.01244
1.00746
1.01336
1.00783
1.01421
1.00841
1.01406
1.00621
1.01089
1.00692
1.01677
1.0154
1.01998
1.00863
1.01462
1.00263
1.01298
1.00389
1.01167
1.00475
1.01151
1.00628
1.01214
1.00643
1.01091
1.00572
1.01025
1.0055
1.01125
1.00741
1.01387
1.01029
1.01621
1.01172
1.01621
1.01023
1.01438
1.00829
1.01148
1.00592
1.00997
1.00418
1.00881
1.00314
1.00934
1.00473
1.01136
1.00658
1.01223
1.00737
1.01335
1.00805
1.01271
1.00536
1.01004
1.00608
1.01667
1.01249
1.02028
1.00724
1.01422
1.01597
1.00323
1.01394
1.00721
1.01171
1.00923
1.0121
1.00987
1.01204
1.00828
1.01082
1.00677
1.01042
1.00675
1.01123
1.00869
1.01372
1.01169
1.01643
1.01285
1.01625
1.01194
1.01456
1.00906
1.01256
1.0067
1.01049
1.00466
1.00943
1.004
1.00993
1.00534
1.01224
1.00744
1.01318
1.0078
1.01411
1.00836
1.01414
1.00616
1.01099
1.00679
1.01671
1.01534
1.0224
1.00644
1.01471
1.00412
1.01425
1.00584
1.01248
1.00717
1.01337
1.00836
1.01357
1.00844
1.01259
1.00718
1.01098
1.006
1.01008
1.00571
1.01072
1.00746
1.01379
1.0104
1.01599
1.01185
1.01614
1.01047
1.01435
1.00849
1.01146
1.00603
1.00967
1.00434
1.00868
1.00332
1.00929
1.00479
1.01129
1.00658
1.01225
1.00738
1.0132
1.00806
1.0128
1.00536
1.01015
1.00589
1.01673
1.01126
1.02194
1.00813
1.01431
1.01707
1.00539
1.0157
1.0087
1.01399
1.01106
1.0136
1.01103
1.01363
1.0099
1.01207
1.00821
1.01074
1.00675
1.01021
1.00684
1.01113
1.00867
1.01365
1.01149
1.01624
1.01275
1.01609
1.01198
1.01438
1.00919
1.01249
1.00687
1.01051
1.00478
1.00936
1.0041
1.00975
1.00533
1.01213
1.00746
1.01313
1.00778
1.01412
1.0083
1.01415
1.00611
1.0109
1.00656
1.01657
1.01472
1.02121
1.00712
1.01482
1.00574
1.01554
1.00772
1.01391
1.00953
1.0146
1.01001
1.01432
1.00998
1.01378
1.00914
1.01274
1.00761
1.0109
1.00633
1.0099
1.00589
1.01043
1.00741
1.01349
1.01048
1.01595
1.01201
1.01603
1.01062
1.01433
1.00862
1.01147
1.00613
1.00959
1.00445
1.00849
1.00349
1.00916
1.0048
1.0112
1.00657
1.01222
1.00738
1.01316
1.00803
1.01291
1.00544
1.01024
1.00595
1.01664
1.01189
1.02072
1.00881
1.01444
1.01749
1.00697
1.0171
1.01032
1.01588
1.01211
1.01463
1.01155
1.0143
1.0106
1.0136
1.00972
1.01206
1.00846
1.01076
1.00686
1.01012
1.00681
1.01076
1.00866
1.01334
1.01141
1.01607
1.01285
1.01604
1.01201
1.01442
1.00927
1.01242
1.00696
1.01049
1.00485
1.00921
1.00421
1.00962
1.00533
1.01195
1.00744
1.01303
1.00771
1.0141
1.00831
1.01412
1.00617
1.0108
1.0065
1.01646
1.01505
1.0209
1.00519
1.01493
1.00697
1.01604
1.00842
1.01514
1.01101
1.0149
1.01086
1.014
1.01005
1.01369
1.0102
1.01373
1.00953
1.01261
1.00792
1.01087
1.00641
1.0098
1.00606
1.01037
1.00742
1.01322
1.01051
1.01576
1.01196
1.016
1.01081
1.01426
1.00875
1.01137
1.00623
1.00956
1.0046
1.00839
1.00353
1.00896
1.00484
1.01108
1.00661
1.01216
1.00737
1.0131
1.00805
1.01294
1.0056
1.01025
1.00584
1.01664
1.01204
1.02268
1.0069
1.01455
1.01843
1.00827
1.01747
1.01124
1.01645
1.01205
1.01481
1.01087
1.0134
1.01014
1.01389
1.01049
1.01334
1.00995
1.01193
1.00859
1.0107
1.00717
1.00994
1.00668
1.01065
1.00866
1.01301
1.01127
1.01598
1.01284
1.01595
1.01198
1.01439
1.00935
1.01241
1.00702
1.01051
1.00493
1.00912
1.00428
1.00946
1.00527
1.01182
1.00743
1.01295
1.0077
1.01394
1.00834
1.01404
1.00628
1.01075
1.00639
1.01628
1.01402
1.02226
1.00622
1.0151
1.00766
1.01684
1.00977
1.01626
1.01126
1.01432
1.01079
1.01273
1.00908
1.01269
1.0099
1.01345
1.01029
1.01347
1.00987
1.01258
1.00819
1.01085
1.00665
1.00982
1.00631
1.01015
1.00745
1.01299
1.01054
1.01549
1.0121
1.01582
1.01103
1.0142
1.00887
1.01132
1.00628
1.00954
1.0047
1.00834
1.0036
1.00887
1.00486
1.01099
1.00662
1.0121
1.00742
1.01312
1.00806
1.0129
1.00586
1.0103
1.00575
1.01662
1.01159
1.02145
1.0077
1.01467
1.0184
1.00814
1.01659
1.01123
1.01594
1.0113
1.01424
1.00956
1.01215
1.00917
1.01279
1.00983
1.01326
1.01049
1.01318
1.01016
1.01203
1.0087
1.01048
1.00725
1.00982
1.0067
1.01021
1.0086
1.01283
1.0111
1.01592
1.01286
1.01602
1.01199
1.01432
1.00943
1.01237
1.00704
1.01049
1.00495
1.0089
1.00433
1.00938
1.00524
1.0117
1.00744
1.01284
1.00765
1.01391
1.00842
1.01386
1.00631
1.01074
1.0063
1.01611
1.0148
1.02114
1.0067
1.01522
1.00814
1.01668
1.00918
1.01574
1.01036
1.01311
1.01
1.01115
1.00814
1.01146
1.00877
1.01216
1.0098
1.01329
1.01059
1.01345
1.00999
1.01258
1.00848
1.01077
1.00685
1.00961
1.00657
1.01016
1.00748
1.01284
1.01058
1.01534
1.01218
1.01575
1.01116
1.01415
1.00898
1.01133
1.00635
1.00951
1.00479
1.00838
1.00358
1.00871
1.00488
1.01088
1.00667
1.01206
1.00744
1.01308
1.00816
1.01305
1.00593
1.01035
1.00561
1.01655
1.01213
1.02054
1.0081
1.0148
1.01793
1.00832
1.01651
1.01114
1.01519
1.01042
1.01332
1.00845
1.01152
1.00831
1.01143
1.00865
1.01232
1.00982
1.01302
1.01052
1.01294
1.01028
1.012
1.00886
1.01056
1.00743
1.00978
1.0067
1.00994
1.00856
1.01267
1.01103
1.01578
1.01282
1.01593
1.01193
1.01428
1.00947
1.0123
1.00707
1.01044
1.00499
1.00873
1.00432
1.00933
1.00521
1.01154
1.00744
1.01279
1.00764
1.01382
1.00839
1.01387
1.00634
1.01068
1.00621
1.01599
1.01478
1.02032
1.00717
1.01538
1.00796
1.01595
1.00858
1.0151
1.00937
1.01191
1.00912
1.0103
1.00822
1.01088
1.008
1.01123
1.00878
1.01205
1.00972
1.01306
1.01065
1.01338
1.00989
1.01241
1.0086
1.01063
1.00706
1.00953
1.00671
1.01018
1.00754
1.01267
1.01063
1.01524
1.01218
1.01575
1.01132
1.01414
1.00908
1.01131
1.00644
1.00948
1.00487
1.00843
1.00365
1.00858
1.00487
1.01079
1.0067
1.01199
1.00748
1.01305
1.00819
1.01309
1.006
1.01035
1.00552
1.01641
1.01254
1.01974
1.0086
1.01499
1.01689
1.00753
1.01515
1.01042
1.01412
1.00954
1.01253
1.00823
1.01189
1.00815
1.01109
1.00815
1.01118
1.00852
1.01184
1.00991
1.01285
1.0106
1.01295
1.01057
1.01201
1.00912
1.01053
1.00745
1.00965
1.0068
1.0098
1.00844
1.01257
1.01097
1.01559
1.01284
1.01588
1.01201
1.01426
1.00953
1.01224
1.00711
1.01033
1.00501
1.00868
1.0043
1.00927
1.00523
1.01144
1.00743
1.0127
1.00762
1.01377
1.00823
1.01387
1.00643
1.0107
1.00616
1.01593
1.0148
1.02006
1.00591
1.01556
1.0077
1.01505
1.00817
1.01391
1.00815
1.01093
1.00871
1.01054
1.00913
1.01097
1.00828
1.01078
1.00802
1.01077
1.00886
1.01188
1.00975
1.01296
1.01067
1.0133
1.01005
1.01236
1.00879
1.01065
1.00718
1.00954
1.00676
1.01015
1.00755
1.01258
1.01058
1.0152
1.01221
1.01569
1.01136
1.01412
1.00915
1.01129
1.00653
1.00955
1.00492
1.0084
1.00365
1.00848
1.00483
1.01065
1.00672
1.01194
1.00748
1.01301
1.00833
1.01308
1.00606
1.01032
1.0055
1.01631
1.01252
1.02134
1.00717
1.01516
1.0162
1.00749
1.01486
1.00992
1.0133
1.00904
1.01231
1.00893
1.01281
1.00855
1.01172
1.00821
1.01087
1.00807
1.01098
1.00853
1.01159
1.00993
1.01251
1.0106
1.0129
1.01064
1.01199
1.00924
1.01051
1.00759
1.00966
1.00682
1.00972
1.00838
1.01251
1.01093
1.01546
1.01282
1.01583
1.01205
1.01423
1.00958
1.01216
1.00715
1.01027
1.00501
1.00863
1.00431
1.00913
1.0052
1.01135
1.00741
1.01262
1.00761
1.01369
1.00826
1.01391
1.00651
1.01075
1.00604
1.01581
1.01398
1.02133
1.00637
1.01572
1.00735
1.01416
1.00733
1.01265
1.00762
1.01068
1.00905
1.01157
1.01037
1.01176
1.00964
1.01116
1.00854
1.01073
1.00825
1.0107
1.00882
1.01174
1.00982
1.01293
1.01074
1.01322
1.01018
1.01223
1.00888
1.01063
1.00728
1.00946
1.00678
1.01003
1.00752
1.0123
1.01052
1.01512
1.01223
1.01567
1.01142
1.01411
1.00927
1.01126
1.00653
1.00952
1.00493
1.00832
1.00368
1.00846
1.00479
1.01058
1.00672
1.01187
1.00747
1.01297
1.00837
1.01311
1.00611
1.01027
1.00544
1.01612
1.01207
1.02057
1.00752
1.01535
1.01495
1.00674
1.01346
1.00901
1.01272
1.00899
1.01271
1.0101
1.01381
1.00961
1.01283
1.00893
1.01149
1.00841
1.01053
1.00818
1.01057
1.00865
1.01148
1.00984
1.01242
1.01063
1.01285
1.01077
1.01194
1.00938
1.01053
1.00766
1.00968
1.00684
1.00971
1.00835
1.01239
1.01089
1.01531
1.01278
1.01578
1.01207
1.01417
1.00961
1.0121
1.00718
1.01027
1.00504
1.00859
1.00429
1.00901
1.00516
1.01124
1.00736
1.01255
1.00761
1.01361
1.00826
1.01388
1.00658
1.01078
1.00604
1.01565
1.01425
1.02055
1.00698
1.01585
1.00718
1.01351
1.0074
1.01219
1.00767
1.01092
1.00991
1.0128
1.01149
1.01284
1.0112
1.01216
1.00998
1.01108
1.00868
1.01074
1.0083
1.01067
1.00881
1.01154
1.00987
1.01278
1.01079
1.01305
1.01033
1.01217
1.00895
1.01062
1.00738
1.00944
1.00685
1.00993
1.0075
1.01219
1.01047
1.01503
1.01225
1.01565
1.01145
1.01402
1.00935
1.01124
1.0066
1.00951
1.00493
1.00829
1.00371
1.00839
1.00474
1.01046
1.00673
1.01179
1.00748
1.01293
1.0084
1.01309
1.0062
1.01021
1.00539
1.01594
1.01228
1.02013
1.00621
1.01553
1.01437
1.0069
1.01322
1.00883
1.01266
1.00951
1.01367
1.01142
1.01477
1.01101
1.01432
1.01017
1.01269
1.00915
1.01139
1.00866
1.01045
1.00832
1.01059
1.00857
1.01142
1.00989
1.01236
1.01063
1.01277
1.01083
1.01198
1.0095
1.01052
1.00772
1.0096
1.00687
1.00977
1.00832
1.0123
1.01081
1.01522
1.01276
1.01572
1.01212
1.01419
1.00965
1.01207
1.00722
1.01018
1.00507
1.00853
1.00427
1.00894
1.00513
1.01116
1.00736
1.0125
1.00761
1.01352
1.0083
1.01387
1.00665
1.0108
1.006
1.01553
1.01438
1.02202
1.0055
1.016
1.00726
1.01309
1.00727
1.01174
1.00799
1.01156
1.01112
1.01388
1.01236
1.01388
1.0124
1.01313
1.01135
1.01213
1.01021
1.01114
1.00879
1.01052
1.00843
1.01064
1.00891
1.0114
1.00977
1.0126
1.01087
1.01292
1.01043
1.01207
1.00902
1.01059
1.00748
1.00945
1.0069
1.00974
1.00747
1.01209
1.01045
1.01493
1.01221
1.01559
1.0115
1.01401
1.00939
1.01123
1.00665
1.00957
1.00495
1.00827
1.00369
1.0083
1.00472
1.01038
1.00674
1.01173
1.0075
1.01283
1.00843
1.01306
1.00627
1.01016
1.00542
1.01577
1.01154
1.02121
1.00675
1.01574
1.01403
1.0072
1.01315
1.0089
1.0131
1.01044
1.01485
1.01238
1.01536
1.01211
1.01522
1.0114
1.01414
1.01056
1.01276
1.00949
1.01141
1.00888
1.01036
1.00843
1.01028
1.00863
1.01116
1.00997
1.01228
1.01069
1.01276
1.01091
1.01191
1.00953
1.01052
1.00777
1.00954
1.00692
1.00972
1.00822
1.01218
1.01074
1.01511
1.0128
1.01568
1.01213
1.01416
1.0097
1.01202
1.00723
1.01016
1.00507
1.00847
1.0043
1.00885
1.00513
1.01106
1.00733
1.01242
1.00763
1.01344
1.00834
1.01386
1.00674
1.01077
1.00603
1.0154
1.01398
1.02119
1.00597
1.01619
1.00747
1.01316
1.00798
1.01199
1.00888
1.01249
1.01223
1.01441
1.0128
1.01452
1.01307
1.01409
1.01265
1.01315
1.01162
1.01211
1.01031
1.01094
1.00894
1.01048
1.00844
1.01056
1.00894
1.01142
1.00984
1.01244
1.01094
1.01286
1.0105
1.01211
1.00915
1.0106
1.00754
1.00944
1.0069
1.00965
1.00751
1.01199
1.01041
1.01486
1.01218
1.01556
1.01154
1.01399
1.00944
1.01124
1.00668
1.00955
1.00493
1.00824
1.0037
1.00815
1.00468
1.01029
1.00674
1.01166
1.00753
1.01274
1.00841
1.01303
1.00637
1.01005
1.00542
1.01556
1.01201
1.02026
1.00717
1.01596
1.01367
1.00728
1.01282
1.00938
1.0139
1.0115
1.01573
1.01282
1.01578
1.01291
1.01562
1.01226
1.01509
1.01159
1.0142
1.01078
1.01271
1.00949
1.01145
1.00895
1.01033
1.00851
1.01025
1.00866
1.01104
1.00992
1.0122
1.01068
1.01266
1.01094
1.01195
1.00955
1.0105
1.0078
1.00944
1.00695
1.00961
1.00816
1.01209
1.01069
1.01501
1.01281
1.01562
1.01214
1.01412
1.00971
1.012
1.00723
1.01011
1.00511
1.00841
1.0043
1.0088
1.00509
1.01096
1.0073
1.01233
1.00762
1.01327
1.00836
1.01381
1.00681
1.0107
1.00606
1.01519
1.01431
1.02028
1.00639
1.01635
1.00761
1.0132
1.00835
1.01222
1.00989
1.01326
1.01297
1.01447
1.01307
1.0148
1.01333
1.01476
1.01329
1.01421
1.01293
1.01329
1.01158
1.01217
1.01055
1.01089
1.00909
1.01041
1.00853
1.01039
1.00899
1.01137
1.00979
1.01238
1.01102
1.01287
1.01054
1.01211
1.00926
1.01062
1.00759
1.00951
1.00694
1.00963
1.00751
1.01186
1.01038
1.01477
1.01216
1.01551
1.0116
1.01397
1.00948
1.01124
1.00671
1.00957
1.00497
1.0082
1.00371
1.00811
1.00465
1.01012
1.00677
1.01159
1.00756
1.01273
1.00839
1.01304
1.00647
1.00997
1.00544
1.01536
1.01224
1.01948
1.00765
1.01614
1.01381
1.00793
1.01394
1.01029
1.01478
1.01233
1.01623
1.01286
1.01591
1.01297
1.01553
1.01283
1.01544
1.01236
1.01465
1.01176
1.01402
1.01115
1.01263
1.00982
1.01138
1.00914
1.01028
1.00857
1.01024
1.00868
1.01093
1.00997
1.01214
1.01065
1.0126
1.01088
1.01197
1.00958
1.01049
1.00789
1.00938
1.00694
1.00959
1.00812
1.01198
1.01064
1.0149
1.0128
1.01555
1.01213
1.0141
1.00973
1.01196
1.00723
1.01007
1.00513
1.00837
1.00428
1.00871
1.00508
1.0109
1.00728
1.01225
1.00759
1.01318
1.00838
1.01379
1.00687
1.01064
1.00603
1.01498
1.01439
1.02006
1.00523
1.01645
1.00839
1.01392
1.00929
1.01275
1.01091
1.01378
1.0133
1.01419
1.01304
1.01441
1.01298
1.01476
1.0135
1.01484
1.01356
1.01421
1.01316
1.0132
1.01177
1.01199
1.01062
1.01091
1.00913
1.01037
1.00856
1.0103
1.00899
1.01114
1.0098
1.01231
1.01101
1.01287
1.01067
1.01209
1.00936
1.01063
1.00765
1.00952
1.00698
1.00956
1.00749
1.01179
1.01033
1.01471
1.01216
1.01549
1.01164
1.01396
1.00952
1.01126
1.00675
1.00955
1.00499
1.00817
1.00372
1.00799
1.00465
1.01004
1.00676
1.01154
1.00757
1.01264
1.00838
1.01301
1.00662
1.00993
1.00547
1.01521
1.01224
1.02102
1.00634
1.01627
1.01376
1.00867
1.0143
1.01077
1.01539
1.01276
1.01631
1.01253
1.01567
1.01257
1.01523
1.0127
1.01519
1.01262
1.01472
1.01251
1.01473
1.012
1.01359
1.01148
1.01255
1.01001
1.01139
1.00928
1.0103
1.00862
1.01017
1.00867
1.01101
1.00996
1.01211
1.01065
1.01256
1.01088
1.012
1.00961
1.01048
1.00791
1.00938
1.00695
1.00956
1.00809
1.01191
1.01057
1.01483
1.01278
1.01549
1.01213
1.01406
1.00974
1.01196
1.00724
1.01005
1.00516
1.00832
1.00428
1.00864
1.00503
1.01082
1.00725
1.01218
1.00758
1.01312
1.00839
1.01375
1.00691
1.01064
1.00597
1.0148
1.01359
1.02117
1.00583
1.01654
1.00907
1.01364
1.00949
1.01321
1.01169
1.01394
1.01327
1.01368
1.01278
1.01377
1.01261
1.01433
1.01319
1.01462
1.01388
1.01478
1.01386
1.01411
1.01331
1.0134
1.01188
1.01203
1.01076
1.01089
1.00915
1.01022
1.00867
1.01025
1.00898
1.01106
1.00979
1.01222
1.01096
1.01285
1.01071
1.01203
1.00943
1.01062
1.00773
1.00946
1.00699
1.0095
1.00747
1.01172
1.01027
1.01464
1.01215
1.01547
1.01164
1.01395
1.00956
1.01126
1.00678
1.0095
1.00501
1.0081
1.00366
1.00795
1.00462
1.00996
1.00675
1.01146
1.00756
1.01253
1.00839
1.01301
1.0067
1.00988
1.00547
1.01505
1.01182
1.02011
1.00684
1.01647
1.0139
1.00935
1.01456
1.01136
1.01583
1.01285
1.01602
1.01194
1.01515
1.01176
1.01459
1.01212
1.01471
1.01271
1.01474
1.01291
1.01465
1.01266
1.01448
1.0123
1.01357
1.01156
1.01248
1.01007
1.01117
1.00939
1.01025
1.0086
1.01009
1.0087
1.01095
1.00998
1.01206
1.01071
1.01247
1.0109
1.01199
1.00965
1.01051
1.00793
1.00943
1.00697
1.00952
1.00803
1.01184
1.01052
1.01474
1.01274
1.01545
1.01213
1.01406
1.00975
1.01191
1.00725
1.01002
1.00521
1.00827
1.00432
1.00858
1.005
1.01071
1.00722
1.0121
1.0076
1.01303
1.00842
1.01371
1.00699
1.01057
1.00592
1.01464
1.01372
1.02031
1.00631
1.01644
1.0093
1.01389
1.01059
1.01378
1.01221
1.01373
1.01293
1.01307
1.01236
1.0129
1.012
1.01342
1.0127
1.01426
1.01328
1.01456
1.01389
1.01479
1.01398
1.01413
1.01335
1.01349
1.01198
1.01214
1.01087
1.01104
1.00927
1.0102
1.00874
1.01013
1.009
1.01099
1.00979
1.01214
1.01097
1.01286
1.01073
1.01203
1.00951
1.01063
1.00779
1.00944
1.00699
1.00947
1.00745
1.01161
1.01026
1.01457
1.01214
1.01541
1.01167
1.01394
1.0096
1.01131
1.00683
1.00948
1.00503
1.0081
1.00367
1.00788
1.00453
1.0099
1.00672
1.01138
1.00756
1.01247
1.00841
1.01297
1.00679
1.00985
1.00538
1.01478
1.01232
1.01973
1.00554
1.01619
1.01416
1.00988
1.01491
1.0119
1.01596
1.01262
1.01548
1.01124
1.01448
1.01085
1.0139
1.01132
1.01415
1.01193
1.01391
1.0129
1.01459
1.01316
1.01468
1.01279
1.01421
1.01232
1.01351
1.01164
1.01247
1.0102
1.01112
1.0094
1.01023
1.00864
1.01005
1.00871
1.01083
1.00996
1.01203
1.01069
1.01246
1.01093
1.01201
1.00968
1.01049
1.00795
1.00944
1.007
1.00948
1.008
1.01175
1.01047
1.01466
1.01272
1.01545
1.01213
1.01402
1.00977
1.01188
1.00726
1.00999
1.00522
1.00822
1.00431
1.00851
1.00502
1.01061
1.0072
1.01202
1.00757
1.01293
1.00844
1.01365
1.00705
1.01044
1.00587
1.01459
1.0138
1.02159
1.00552
1.01657
1.00958
1.01407
1.01099
1.01378
1.01223
1.0132
1.01241
1.01239
1.01171
1.01185
1.01126
1.01242
1.01194
1.01311
1.01281
1.01412
1.01341
1.01447
1.01361
1.0147
1.01408
1.01428
1.01341
1.01345
1.01211
1.01217
1.01087
1.01108
1.00934
1.01019
1.00881
1.01008
1.009
1.01097
1.00979
1.01207
1.01097
1.01282
1.01077
1.012
1.00956
1.01065
1.00783
1.00945
1.00697
1.00945
1.00742
1.01153
1.01022
1.0145
1.01211
1.01536
1.01168
1.01394
1.00963
1.01131
1.00688
1.00945
1.00507
1.00806
1.00368
1.00782
1.00452
1.00984
1.00672
1.01133
1.00759
1.0124
1.00843
1.01293
1.0069
1.00994
1.00532
1.01458
1.01162
1.02049
1.00658
1.01643
1.01385
1.01026
1.01493
1.01212
1.01572
1.01207
1.01477
1.01048
1.01373
1.00993
1.01314
1.01035
1.01334
1.01106
1.01338
1.01225
1.01392
1.01275
1.01427
1.01341
1.01462
1.01291
1.01426
1.01243
1.01362
1.0117
1.01243
1.0103
1.01109
1.00938
1.01022
1.00867
1.01003
1.00876
1.01078
1.00991
1.01198
1.01069
1.01244
1.01094
1.01202
1.00973
1.01052
1.00797
1.00944
1.00703
1.00945
1.00797
1.01165
1.01042
1.01458
1.0127
1.01539
1.01213
1.014
1.0098
1.01187
1.00729
1.00996
1.00526
1.00817
1.00432
1.00844
1.00498
1.0105
1.00716
1.01196
1.00758
1.01285
1.00846
1.01359
1.0071
1.01045
1.00579
1.01451
1.01346
1.02078
1.00598
1.01677
1.00992
1.01392
1.01103
1.01359
1.01186
1.01262
1.01184
1.01173
1.01109
1.01107
1.0109
1.01159
1.01115
1.01215
1.0122
1.01319
1.0128
1.01406
1.01323
1.01446
1.01371
1.01463
1.01408
1.01416
1.01347
1.01344
1.01214
1.01212
1.01099
1.01108
1.00949
1.01012
1.00879
1.01002
1.00898
1.01091
1.0098
1.01202
1.01094
1.01278
1.0108
1.01198
1.00958
1.01066
1.00787
1.00944
1.00696
1.00942
1.00743
1.01148
1.01018
1.01444
1.0121
1.01534
1.0117
1.01391
1.00965
1.0113
1.00691
1.00942
1.0051
1.00803
1.0037
1.00776
1.0045
1.00977
1.00671
1.01127
1.00758
1.01233
1.00845
1.01288
1.00694
1.00996
1.00524
1.01442
1.01199
1.01978
1.00696
1.01667
1.01372
1.0104
1.01457
1.01214
1.01522
1.01146
1.01405
1.00974
1.013
1.00911
1.01249
1.00945
1.01251
1.01029
1.01249
1.01122
1.01311
1.01233
1.01384
1.01317
1.01436
1.01347
1.01453
1.01298
1.01428
1.01248
1.01355
1.01176
1.01248
1.01033
1.01111
1.00938
1.01027
1.00869
1.00999
1.00872
1.01074
1.00986
1.01198
1.0107
1.01244
1.01095
1.01203
1.00974
1.01053
1.00797
1.00944
1.00705
1.00941
1.00794
1.01158
1.01036
1.0145
1.01268
1.01537
1.01213
1.014
1.00983
1.01184
1.00733
1.0099
1.00529
1.00813
1.00429
1.00837
1.00496
1.01039
1.00714
1.01188
1.00758
1.01276
1.00847
1.01354
1.0071
1.01038
1.00569
1.01434
1.01375
1.0201
1.00636
1.01699
1.01008
1.0137
1.01113
1.01323
1.01159
1.01208
1.0112
1.01111
1.01056
1.01047
1.01053
1.01098
1.01076
1.01152
1.01132
1.01231
1.01208
1.01324
1.01267
1.01385
1.0133
1.01438
1.01376
1.01462
1.0141
1.01417
1.01332
1.01339
1.01227
1.01212
1.01103
1.01105
1.0095
1.01013
1.0088
1.01
1.00899
1.01085
1.00981
1.01193
1.01093
1.01274
1.01083
1.01197
1.00964
1.01065
1.00793
1.00945
1.00698
1.00939
1.00741
1.01141
1.01014
1.01438
1.01208
1.0153
1.01173
1.01389
1.0097
1.01128
1.00695
1.00937
1.00514
1.008
1.00372
1.00769
1.00449
1.00969
1.00668
1.01121
1.00758
1.01225
1.00846
1.01284
1.00699
1.01002
1.00515
1.01428
1.01217
1.01913
1.00727
1.01678
1.01378
1.01064
1.01453
1.01199
1.01454
1.01077
1.01335
1.00908
1.01249
1.00877
1.0123
1.00916
1.01167
1.0094
1.01165
1.01043
1.01221
1.01134
1.0129
1.01245
1.0138
1.01321
1.01431
1.01352
1.01453
1.01307
1.01426
1.01271
1.01361
1.01178
1.01249
1.01036
1.01113
1.00939
1.01026
1.00869
1.00998
1.00873
1.01065
1.00983
1.01194
1.01069
1.01241
1.01096
1.01203
1.00978
1.01056
1.008
1.00943
1.00704
1.00937
1.0079
1.01152
1.01031
1.01443
1.01265
1.01532
1.01214
1.01398
1.00986
1.01181
1.00738
1.00987
1.00531
1.00808
1.00428
1.00827
1.00492
1.01026
1.00714
1.01181
1.00759
1.01267
1.00846
1.01349
1.00712
1.0104
1.00559
1.01421
1.01386
1.01952
1.00658
1.01675
1.01028
1.01367
1.01112
1.01286
1.01123
1.01145
1.01063
1.01064
1.01035
1.01033
1.01067
1.01067
1.01052
1.01101
1.0108
1.01155
1.01127
1.01228
1.01186
1.01319
1.01248
1.0138
1.01326
1.01426
1.01379
1.01454
1.01396
1.01412
1.01339
1.01342
1.01232
1.01212
1.01108
1.01104
1.00952
1.01009
1.00882
1.00998
1.00898
1.01081
1.00981
1.01189
1.01093
1.01273
1.01086
1.01198
1.00966
1.01065
1.00798
1.00946
1.00699
1.00936
1.0074
1.01133
1.01011
1.0143
1.01207
1.01527
1.01175
1.01388
1.00974
1.01127
1.00699
1.00933
1.00518
1.00795
1.00369
1.00764
1.00447
1.00958
1.00666
1.01115
1.00757
1.01218
1.00844
1.01279
1.00704
1.01003
1.00503
1.01419
1.01218
1.01872
1.00789
1.01674
1.01368
1.0104
1.01407
1.0116
1.01384
1.01015
1.01275
1.00864
1.01236
1.00881
1.01239
1.00904
1.01179
1.00938
1.01118
1.00972
1.01128
1.01059
1.01214
1.01165
1.0128
1.01271
1.01358
1.01327
1.01426
1.01359
1.01452
1.0133
1.01431
1.01279
1.01359
1.01187
1.01248
1.01043
1.01113
1.00942
1.01027
1.00868
1.00995
1.00871
1.01062
1.00981
1.01191
1.01067
1.0124
1.01095
1.01202
1.00981
1.01059
1.00802
1.00941
1.00707
1.00934
1.00785
1.01146
1.01025
1.01436
1.01262
1.01528
1.01214
1.01395
1.00989
1.01175
1.00741
1.00984
1.00534
1.00804
1.00428
1.00821
1.00493
1.01018
1.00713
1.01173
1.0076
1.01259
1.00844
1.01343
1.00714
1.0104
1.00551
1.01409
1.01373
1.01941
1.00609
1.01702
1.0103
1.0135
1.01098
1.01245
1.01081
1.01081
1.01015
1.01039
1.0104
1.01037
1.0108
1.01055
1.01066
1.01076
1.01033
1.01113
1.0108
1.01172
1.01126
1.01205
1.01187
1.01312
1.01246
1.01383
1.01325
1.01425
1.01379
1.01446
1.01398
1.01413
1.01333