/*--------------------------------*- C++ -*----------------------------------*\
| =========                 |                                                 |
| \\      /  F ield         | OpenFOAM: The Open Source CFD Toolbox           |
|  \\    /   O peration     | Version:  2206                                  |
|   \\  /    A nd           | Website:  www.openfoam.com                      |
|    \\/     M anipulation  |                                                 |
\*---------------------------------------------------------------------------*/
FoamFile
{
    version     2.0;
    format      ascii;
    arch        "LSB;label=32;scalar=64";
    class       volScalarField;
    location    "200";
    object      TPrime2Mean;
}
// * * * * * * * * * * * * * * * * * * * * * * * * * * * * * * * * * * * * * //

dimensions      [0 0 0 2 0 0 0];

internalField   nonuniform List<scalar> 
93840
(
0.00100689
0.000710108
0.0024081
0.000488282
0.00204666
0.00363799
0.000180467
0.000454274
0.000473511
0.00200209
0.000301378
0.003136
0.000232823
0.000849311
0.000979945
8.68012e-05
0.000549909
0.00420754
0.000391834
0.000337985
0.0011541
3.51243e-05
0.000480953
0.000494613
0.000805269
0.00108113
9.97249e-05
0.00164687
2.13541e-05
0.000287973
0.000777892
0.000416604
0.00108435
0.00077604
0.000169364
0.0021548
2.63908e-05
0.000180986
0.000309767
0.000335333
7.70757e-05
0.000170779
0.000607231
0.00018562
0.00215361
4.97662e-05
0.000140987
0.000331912
0.000554297
0.00103737
0.000283567
0.00097126
0.000462048
0.000233639
0.00275921
1.41904e-05
0.000146658
0.000245822
0.000225009
0.000206218
0.000557979
0.000102606
0.000277123
0.000423789
0.000228301
0.00209514
2.55728e-05
6.64551e-05
0.000199749
0.000220078
0.000608398
0.000267492
0.000699155
0.000217772
0.000630787
0.000552841
0.000195246
0.00200698
1.0461e-05
0.000106028
0.000129616
0.000164692
0.00015588
0.000356861
0.000154582
0.000182835
0.000215905
0.000210396
0.000528619
0.000222347
0.002126
2.00385e-05
5.86109e-05
0.000196105
0.000102072
0.000307158
0.000244384
0.000560469
0.00016855
0.000318843
0.000213634
0.000527554
0.000451278
0.000174372
0.00196427
1.00342e-05
8.21876e-05
0.000123652
0.000134884
0.000106556
0.000319884
5.04127e-05
0.00016986
0.00014391
0.000128945
0.000255914
0.000213502
0.000483218
0.000223975
0.00207774
1.6505e-05
4.99557e-05
0.000171513
9.17217e-05
0.000215208
0.000146785
0.000261574
0.000167217
0.000283012
0.000150527
0.000294295
0.000201423
0.000484254
0.000459601
0.00017017
0.00192342
1.09611e-05
6.65407e-05
0.00014946
0.000120238
7.14634e-05
0.000297939
6.8166e-05
0.000236593
6.63991e-05
0.000101569
0.000145688
0.000124542
0.000255093
0.000201951
0.000438848
0.00022606
0.00208911
2.02489e-05
4.19104e-05
0.000167811
9.90959e-05
0.00013363
0.000118565
0.000193677
0.000125143
0.000171366
0.000149575
0.000251478
0.000138672
0.000256383
0.000178862
0.000460187
0.000449074
0.000169384
0.00191602
1.18626e-05
5.9937e-05
0.000163449
0.000130466
6.77821e-05
0.000233067
4.05162e-05
0.000216556
6.1285e-05
0.000206558
7.62659e-05
9.24939e-05
0.000147521
0.000128832
0.000250879
0.000190678
0.000416129
0.000226738
0.00208718
2.11403e-05
3.88068e-05
0.000176842
0.000121022
0.000111256
8.95697e-05
0.000137381
7.50917e-05
0.000150363
0.000121471
0.000152287
0.000135609
0.000213374
0.000130175
0.000241596
0.000178896
0.000422882
0.000445143
0.000171038
0.00189569
1.49546e-05
5.97225e-05
0.000180795
0.000131976
6.48297e-05
0.000226146
2.24188e-05
0.000155336
4.30965e-05
0.000195872
6.05682e-05
0.000184824
8.80391e-05
9.34008e-05
0.000149361
0.000124326
0.000242878
0.000176265
0.000393821
0.000227615
0.00208666
2.43776e-05
3.38217e-05
0.000169759
0.00013074
0.000100232
9.61428e-05
8.78401e-05
5.40944e-05
0.000101223
7.34878e-05
0.000119848
0.00011658
0.000139795
0.000122255
0.000196411
0.000122494
0.000215249
0.00017629
0.000381015
0.000445221
0.000173167
0.00185724
1.76057e-05
7.42269e-05
0.000174132
0.000136484
6.71816e-05
0.000204036
2.37816e-05
0.000137426
2.88121e-05
0.000152653
4.23244e-05
0.000172689
6.42171e-05
0.000180363
9.50978e-05
8.36966e-05
0.000142279
0.000116669
0.000228387
0.000159113
0.00038003
0.000226634
0.00213371
2.65134e-05
3.47835e-05
0.000155597
0.000141497
9.41462e-05
8.8987e-05
8.46406e-05
4.01446e-05
7.10909e-05
5.34413e-05
8.16499e-05
6.211e-05
0.000101461
0.00010233
0.000135778
0.000106702
0.000171773
0.000122487
0.000189003
0.000182518
0.000347835
0.000442304
0.000177224
0.00182274
2.12949e-05
7.25194e-05
0.00017823
0.00015215
7.8594e-05
0.000200962
2.768e-05
0.00014092
2.67617e-05
0.000135724
2.82186e-05
0.000118671
4.25747e-05
0.000161113
6.69407e-05
0.000154834
0.00010029
9.21044e-05
0.000134302
0.000106216
0.000223207
0.000151376
0.000371008
0.000240535
0.00221313
2.60656e-05
3.68574e-05
0.000172507
0.000156623
7.80081e-05
0.000103974
8.24662e-05
5.02144e-05
5.83471e-05
3.45418e-05
5.35415e-05
4.54524e-05
6.95304e-05
6.22547e-05
9.43694e-05
8.85358e-05
0.00012606
9.96671e-05
0.000145585
0.000124678
0.000167084
0.000189395
0.000325748
0.000441286
0.00021728
0.00234162
2.16877e-05
8.39246e-05
0.000162272
0.000140353
7.05825e-05
0.000194988
2.5658e-05
0.000121682
2.27896e-05
0.000135887
2.9772e-05
0.0001003
3.2196e-05
0.000115588
4.47703e-05
0.000140161
7.2076e-05
0.000154535
8.99979e-05
0.000100421
0.000128955
9.51612e-05
0.000218588
0.00014371
0.000376831
0.000186053
0.00207751
2.92614e-05
4.2297e-05
0.000167234
0.000148529
8.05605e-05
8.32721e-05
8.91379e-05
5.02552e-05
6.60891e-05
4.16088e-05
5.3375e-05
3.29206e-05
5.16556e-05
4.72168e-05
6.44143e-05
6.023e-05
8.83819e-05
8.13769e-05
0.000124212
9.77329e-05
0.000119909
0.000121107
0.000152267
0.000194449
0.000296565
0.000484025
0.000144758
0.00207291
2.27018e-05
8.78625e-05
0.000157158
0.000132854
6.33932e-05
0.000201769
2.42051e-05
0.000111882
1.88375e-05
0.000111627
2.13121e-05
0.000105304
3.09268e-05
9.63286e-05
3.54435e-05
9.91513e-05
4.42146e-05
0.000127248
7.25018e-05
0.000150417
8.79478e-05
0.000102016
0.00013107
9.107e-05
0.000219524
0.000141425
0.000401839
0.000205732
0.00194412
3.50806e-05
4.9296e-05
0.000164078
0.000140671
7.61663e-05
7.51677e-05
6.21005e-05
4.39394e-05
6.75089e-05
4.35774e-05
5.24814e-05
4.04306e-05
4.27733e-05
3.30802e-05
4.99805e-05
4.79179e-05
6.14896e-05
6.02844e-05
8.7777e-05
7.96589e-05
0.000121079
9.25362e-05
0.000111418
0.000122612
0.000143236
0.000199365
0.000268141
0.000445759
0.00017369
0.00200327
2.87779e-05
8.68921e-05
0.000152929
0.000138133
6.01387e-05
0.000178032
2.62901e-05
9.74283e-05
1.71944e-05
9.83772e-05
1.75185e-05
8.57634e-05
2.41922e-05
9.47685e-05
3.10178e-05
8.95081e-05
3.42397e-05
9.44197e-05
4.35758e-05
0.000103326
6.8953e-05
0.000147323
8.71804e-05
0.000104839
0.000131837
9.42624e-05
0.000219565
0.000143734
0.000383728
0.000223615
0.00190665
4.31853e-05
6.89564e-05
0.000156464
0.000135358
7.79502e-05
7.66666e-05
5.88869e-05
4.24756e-05
6.24431e-05
3.94876e-05
6.34897e-05
4.30678e-05
4.82171e-05
3.84043e-05
4.15918e-05
3.2026e-05
4.7794e-05
4.91194e-05
5.92417e-05
5.75862e-05
9.21343e-05
7.4084e-05
0.000119997
9.00185e-05
0.000108725
0.000119571
0.00013003
0.000205644
0.000246293
0.000441412
0.000187523
0.00196984
3.88462e-05
9.72693e-05
0.00014123
0.000136062
5.80976e-05
0.000164102
2.78034e-05
7.94544e-05
1.99457e-05
7.56508e-05
1.74158e-05
7.70691e-05
1.94634e-05
7.87328e-05
2.38687e-05
8.81063e-05
2.843e-05
8.25401e-05
3.24304e-05
8.95203e-05
4.42551e-05
0.000109681
6.934e-05
0.000140169
8.63146e-05
9.92055e-05
0.000131686
9.10637e-05
0.000219847
0.000142782
0.000388678
0.000231722
0.00190082
4.04581e-05
0.000101967
0.000122809
0.000153455
7.65828e-05
8.09963e-05
5.79658e-05
4.7609e-05
4.93519e-05
3.92332e-05
6.06448e-05
3.71605e-05
5.76765e-05
4.0091e-05
4.48293e-05
3.44643e-05
3.76295e-05
3.11979e-05
4.42058e-05
4.68471e-05
5.77796e-05
5.74234e-05
8.95438e-05
6.89264e-05
0.000115199
8.79144e-05
0.000102383
0.00012029
0.000119331
0.000213097
0.000230468
0.000426049
0.000200084
0.00195811
3.6028e-05
9.62224e-05
0.000150471
0.000119449
5.92764e-05
0.000133098
3.5493e-05
4.98295e-05
2.38861e-05
6.36117e-05
1.85216e-05
6.67323e-05
1.73644e-05
7.16119e-05
1.90302e-05
7.2676e-05
2.28828e-05
7.87592e-05
2.88071e-05
7.48162e-05
3.10508e-05
8.54262e-05
4.24574e-05
0.000105942
6.90582e-05
0.00013897
8.56708e-05
9.8987e-05
0.000131931
8.64232e-05
0.000220323
0.000118618
0.000396648
0.000182851
0.00189642
4.04798e-05
0.000113443
0.00010415
0.000156957
7.16767e-05
8.58319e-05
5.62489e-05
4.92937e-05
4.65225e-05
3.86969e-05
4.80586e-05
3.64827e-05
5.46403e-05
3.42624e-05
5.11645e-05
3.57545e-05
4.1626e-05
3.15123e-05
3.56043e-05
3.01407e-05
4.14556e-05
4.64718e-05
5.66008e-05
5.56308e-05
8.65492e-05
6.17922e-05
0.000110818
8.67435e-05
9.72297e-05
0.000121809
0.000112027
0.000217951
0.000207675
0.000498017
0.000159833
0.00195022
3.5211e-05
9.75012e-05
0.000166615
0.0001035
5.4873e-05
0.000115744
3.49857e-05
4.70944e-05
2.79632e-05
4.45944e-05
2.15407e-05
5.44923e-05
1.77668e-05
5.86809e-05
1.48099e-05
6.23967e-05
1.8069e-05
6.35841e-05
2.29773e-05
6.86996e-05
2.69935e-05
6.39582e-05
3.08505e-05
7.36867e-05
4.17299e-05
0.000102879
6.5347e-05
0.000138243
8.56812e-05
9.63453e-05
0.000132565
8.15131e-05
0.000222718
0.000105125
0.000459185
0.000194263
0.00189105
3.63071e-05
0.000134088
8.05503e-05
0.000136575
7.62272e-05
7.8923e-05
5.84456e-05
4.63086e-05
5.02871e-05
4.37744e-05
4.28429e-05
3.67182e-05
4.10094e-05
3.20506e-05
4.87276e-05
2.77196e-05
4.56064e-05
2.80189e-05
4.16591e-05
2.91362e-05
3.60932e-05
2.78559e-05
4.38284e-05
3.93528e-05
6.18363e-05
5.0894e-05
8.50567e-05
6.13953e-05
0.000111962
8.35298e-05
9.2801e-05
0.000120944
0.000108393
0.000222382
0.000181258
0.000468005
0.000168844
0.00194456
3.72921e-05
9.07689e-05
0.000186038
8.9028e-05
4.01659e-05
0.000106966
3.24838e-05
3.67244e-05
3.98203e-05
3.88487e-05
2.90596e-05
3.73305e-05
1.91531e-05
5.03972e-05
1.58745e-05
5.09748e-05
1.36972e-05
5.78827e-05
1.83483e-05
5.25113e-05
2.26293e-05
6.52825e-05
2.59035e-05
6.23491e-05
3.18965e-05
7.27134e-05
4.17228e-05
0.000101328
6.40409e-05
0.00013467
8.19531e-05
9.70539e-05
0.000133646
7.97436e-05
0.000223833
0.000114367
0.000437191
0.000204156
0.00188777
3.23878e-05
0.000155145
5.88178e-05
0.000139338
6.06721e-05
8.46289e-05
5.73352e-05
5.64555e-05
5.10387e-05
4.44684e-05
4.67779e-05
3.80812e-05
3.83161e-05
3.39048e-05
3.78116e-05
2.95282e-05
4.54879e-05
2.59787e-05
4.21716e-05
2.6283e-05
4.15464e-05
2.28099e-05
3.53974e-05
2.56543e-05
4.30265e-05
3.72015e-05
6.10439e-05
5.01158e-05
8.35974e-05
6.06434e-05
0.000110564
8.61353e-05
9.22893e-05
0.000119252
0.000102922
0.000225289
0.000177283
0.000461165
0.000139016
0.00193946
3.34859e-05
7.83477e-05
0.000195564
7.34485e-05
4.44032e-05
9.75339e-05
3.99029e-05
3.30255e-05
4.1689e-05
3.55225e-05
4.07982e-05
3.52418e-05
2.67338e-05
3.70369e-05
1.81077e-05
4.28985e-05
1.4268e-05
4.60516e-05
1.33983e-05
5.25953e-05
1.83603e-05
5.01289e-05
2.14263e-05
6.27191e-05
2.44277e-05
6.00632e-05
3.10012e-05
7.16218e-05
4.20357e-05
9.8235e-05
6.08065e-05
0.00013473
7.92318e-05
9.74141e-05
0.000132488
7.84828e-05
0.000224277
0.000121969
0.000509636
0.000158549
0.00188704
2.85494e-05
0.000156799
5.63966e-05
0.000143339
5.02258e-05
0.000101301
5.67148e-05
6.19348e-05
4.7752e-05
5.06192e-05
4.46527e-05
3.83419e-05
4.18231e-05
3.62463e-05
3.77786e-05
2.8245e-05
3.5912e-05
2.72853e-05
4.27539e-05
2.34727e-05
4.05651e-05
2.26116e-05
4.33948e-05
2.17042e-05
3.45877e-05
2.48389e-05
4.19644e-05
3.3426e-05
5.8595e-05
4.96238e-05
8.28158e-05
6.05731e-05
0.000110339
8.52648e-05
9.38105e-05
0.000118228
9.95122e-05
0.000227728
0.000148473
0.000510058
0.000150908
0.001934
3.01786e-05
6.22448e-05
0.00019576
6.21946e-05
5.71531e-05
9.67037e-05
3.93546e-05
3.13039e-05
4.21675e-05
3.19938e-05
4.10017e-05
3.24271e-05
3.84897e-05
3.21532e-05
2.41859e-05
3.50606e-05
1.43637e-05
3.96915e-05
1.24444e-05
4.26784e-05
1.21606e-05
5.0425e-05
1.76266e-05
4.71453e-05
2.01752e-05
5.79229e-05
2.33438e-05
5.82796e-05
3.23011e-05
7.00849e-05
4.234e-05
9.56312e-05
5.94543e-05
0.000134001
7.85635e-05
9.91169e-05
0.000131104
7.69274e-05
0.000222246
0.000123519
0.00047668
0.000166489
0.00186762
2.62487e-05
0.000142096
5.17351e-05
0.000155191
4.44063e-05
0.000113141
5.51932e-05
5.89346e-05
4.64687e-05
5.51215e-05
4.02716e-05
4.54393e-05
3.81648e-05
3.44356e-05
3.98882e-05
3.10976e-05
3.46186e-05
2.69479e-05
3.38809e-05
2.6297e-05
4.08249e-05
2.2251e-05
3.92652e-05
2.07253e-05
4.33603e-05
2.01101e-05
3.47172e-05
2.43802e-05
4.16549e-05
3.2037e-05
5.73896e-05
5.00328e-05
8.11033e-05
5.85893e-05
0.000109624
8.34186e-05
9.44617e-05
0.000116433
9.77084e-05
0.000228556
0.000157
0.000476756
0.000158488
0.00190245
2.56332e-05
4.472e-05
0.000200238
4.80125e-05
7.33429e-05
9.6379e-05
3.59509e-05
2.95871e-05
4.20234e-05
3.3798e-05
3.69154e-05
2.94342e-05
3.89447e-05
2.81812e-05
3.65825e-05
2.9637e-05
2.31001e-05
3.2116e-05
1.32807e-05
3.53726e-05
1.20863e-05
3.75728e-05
1.20868e-05
4.81954e-05
1.67536e-05
4.52328e-05
1.94577e-05
5.1317e-05
2.31762e-05
5.36592e-05
3.23599e-05
6.75152e-05
4.23469e-05
9.3392e-05
5.86093e-05
0.000133007
7.77886e-05
0.000101187
0.000129626
7.64982e-05
0.000220964
0.000135149
0.00045278
0.000179686
0.00184215
2.54829e-05
0.000121091
4.84677e-05
0.000157016
4.39835e-05
0.000110721
5.21817e-05
5.21045e-05
4.33019e-05
4.88206e-05
4.05428e-05
5.26613e-05
3.22864e-05
4.22981e-05
3.60353e-05
3.16403e-05
3.66674e-05
2.84502e-05
3.2978e-05
2.6319e-05
3.27737e-05
2.50883e-05
3.8858e-05
2.08852e-05
3.8244e-05
1.92775e-05
4.13653e-05
1.95661e-05
3.65672e-05
2.4104e-05
4.30648e-05
3.11598e-05
5.68923e-05
5.08138e-05
8.05931e-05
5.82142e-05
0.000108732
8.1393e-05
9.4809e-05
0.000115093
9.63401e-05
0.000230603
0.000158341
0.000467894
0.000140021
0.00188173
2.71717e-05
3.67513e-05
0.000197443
4.47439e-05
7.52266e-05
8.84641e-05
2.96919e-05
2.78394e-05
3.7706e-05
2.8105e-05
3.44457e-05
2.86838e-05
3.38262e-05
2.903e-05
3.50491e-05
2.61633e-05
3.95499e-05
2.65274e-05
2.30776e-05
2.83078e-05
1.33641e-05
3.34361e-05
1.09978e-05
3.64553e-05
1.18554e-05
4.55302e-05
1.70744e-05
4.30094e-05
1.9278e-05
4.59451e-05
2.26436e-05
5.19482e-05
3.12131e-05
6.65738e-05
4.31224e-05
9.03638e-05
5.84939e-05
0.000130666
7.62555e-05
9.95413e-05
0.000128779
7.63791e-05
0.000220165
0.000143824
0.000515911
0.000147972
0.00182711
2.62662e-05
0.000120337
5.13443e-05
0.00014867
4.69085e-05
9.77372e-05
4.56433e-05
5.23496e-05
4.19635e-05
4.41774e-05
3.43533e-05
4.34032e-05
3.27055e-05
4.78431e-05
2.73081e-05
3.77073e-05
3.39946e-05
2.64489e-05
3.68792e-05
2.41665e-05
3.18113e-05
2.58379e-05
3.14364e-05
2.45484e-05
3.67914e-05
2.00946e-05
3.79093e-05
1.65727e-05
3.98158e-05
1.83071e-05
3.70101e-05
2.37513e-05
4.28847e-05
3.28633e-05
5.60478e-05
5.08679e-05
7.94989e-05
5.74724e-05
0.000110414
8.00234e-05
9.62425e-05
0.000114023
9.61043e-05
0.000232719
0.000135152
0.000509043
0.000152743
0.00187007
3.23594e-05
2.88285e-05
0.000201811
3.29486e-05
7.69179e-05
8.35877e-05
3.07157e-05
3.12448e-05
3.46066e-05
2.40122e-05
3.15864e-05
2.25925e-05
2.89317e-05
2.55679e-05
3.52402e-05
2.75693e-05
3.3441e-05
2.52269e-05
3.34776e-05
2.53152e-05
2.25144e-05
2.72185e-05
1.40546e-05
3.27993e-05
1.17622e-05
3.60012e-05
1.20876e-05
4.20129e-05
1.63776e-05
4.11082e-05
1.93539e-05
4.62951e-05
2.281e-05
5.02101e-05
3.16592e-05
6.5946e-05
4.33737e-05
8.87204e-05
5.68104e-05
0.000129839
7.47825e-05
9.85421e-05
0.000126671
7.12269e-05
0.000221108
0.000146017
0.000489053
0.000158164
0.00181716
2.44972e-05
0.000138094
4.71078e-05
0.000130392
4.88489e-05
8.22804e-05
4.39342e-05
5.42967e-05
4.29561e-05
4.42671e-05
3.18865e-05
3.95845e-05
2.87588e-05
3.74957e-05
2.92488e-05
4.20549e-05
2.61834e-05
3.59106e-05
3.11097e-05
2.55289e-05
3.60415e-05
2.21764e-05
3.13253e-05
2.54415e-05
2.93544e-05
2.33774e-05
3.53484e-05
1.96943e-05
3.74057e-05
1.58725e-05
3.80125e-05
1.74717e-05
3.67421e-05
2.35229e-05
4.16641e-05
3.34224e-05
5.48657e-05
5.15461e-05
7.97968e-05
5.70322e-05
0.000110454
7.92418e-05
9.62176e-05
0.000110999
9.46211e-05
0.000232609
0.000144715
0.000479896
0.000164766
0.0018577
3.44969e-05
2.95133e-05
0.000199752
2.80605e-05
7.39305e-05
7.85984e-05
3.32514e-05
3.68344e-05
3.83949e-05
2.49814e-05
3.35035e-05
2.29292e-05
2.48305e-05
2.0929e-05
2.70886e-05
2.25458e-05
3.27188e-05
2.65689e-05
3.09068e-05
2.44038e-05
3.08739e-05
2.43921e-05
2.14023e-05
2.61783e-05
1.40323e-05
3.2317e-05
1.12321e-05
3.40576e-05
1.19163e-05
4.03117e-05
1.6715e-05
4.04027e-05
1.75207e-05
4.41417e-05
2.30269e-05
4.86265e-05
3.21307e-05
6.53408e-05
4.35908e-05
8.69495e-05
5.56891e-05
0.000128978
7.42114e-05
9.79232e-05
0.000125151
7.02833e-05
0.00022165
0.000158558
0.000484827
0.000132895
0.0017995
2.42923e-05
0.000142076
4.71261e-05
0.000109838
5.14417e-05
6.69915e-05
4.70685e-05
5.75978e-05
4.23782e-05
5.20877e-05
3.40491e-05
3.86379e-05
2.89169e-05
3.54722e-05
2.71192e-05
3.31555e-05
2.64388e-05
3.7908e-05
2.53433e-05
3.41224e-05
3.05744e-05
2.50427e-05
3.37187e-05
2.18973e-05
2.98181e-05
2.45989e-05
2.97128e-05
2.2501e-05
3.46436e-05
1.835e-05
3.68082e-05
1.55211e-05
3.67922e-05
1.75491e-05
3.67132e-05
2.29343e-05
4.07943e-05
3.32376e-05
5.41255e-05
5.21767e-05
7.90439e-05
5.54621e-05
0.000109648
7.91513e-05
9.53604e-05
0.000109292
9.17416e-05
0.000234337
0.000147287
0.000529038
0.000146103
0.00183955
3.98947e-05
3.89071e-05
0.000200484
2.38837e-05
6.40928e-05
7.09802e-05
3.85658e-05
4.06902e-05
4.54217e-05
2.99536e-05
3.6729e-05
2.58023e-05
3.0062e-05
2.0616e-05
2.45894e-05
1.94889e-05
2.59282e-05
2.15984e-05
3.17925e-05
2.49455e-05
2.93077e-05
2.34252e-05
2.90716e-05
2.34386e-05
2.09353e-05
2.5895e-05
1.35958e-05
3.16615e-05
1.16665e-05
3.23664e-05
1.24235e-05
3.88891e-05
1.6859e-05
3.97286e-05
1.77484e-05
4.30492e-05
2.31787e-05
4.67272e-05
3.26706e-05
6.4231e-05
4.41923e-05
8.62912e-05
5.20718e-05
0.000127158
7.22907e-05
9.42187e-05
0.00012219
7.13728e-05
0.000221255
0.00015565
0.000519449
0.000144268
0.00178276
2.33545e-05
0.000156005
5.29693e-05
9.85681e-05
6.17708e-05
5.99665e-05
4.72568e-05
6.17853e-05
3.598e-05
5.94186e-05
3.06367e-05
4.75735e-05
3.11015e-05
3.58798e-05
2.62772e-05
3.14337e-05
2.53553e-05
2.75722e-05
2.54522e-05
3.54993e-05
2.41801e-05
3.16668e-05
2.92314e-05
2.5572e-05
3.24256e-05
2.16441e-05
3.03202e-05
2.39415e-05
2.91657e-05
2.03881e-05
3.42893e-05
1.76542e-05
3.6045e-05
1.5498e-05
3.67638e-05
1.8161e-05
3.60037e-05
2.28877e-05
4.05993e-05
3.40252e-05
5.36425e-05
5.23668e-05
7.87474e-05
5.6481e-05
0.000108669
7.5893e-05
9.62258e-05
0.000110832
9.08169e-05
0.000235364
0.000135986
0.000498526
0.000156459
0.00182738
4.32246e-05
4.22308e-05
0.000201814
2.11287e-05
5.89217e-05
7.85247e-05
4.47318e-05
4.46573e-05
5.18316e-05
3.67771e-05
4.445e-05
2.86744e-05
3.48869e-05
2.34326e-05
2.73615e-05
1.96592e-05
2.29208e-05
1.92477e-05
2.64883e-05
2.07259e-05
3.10973e-05
2.34999e-05
2.98584e-05
2.30985e-05
2.53586e-05
2.24188e-05
1.94651e-05
2.54889e-05
1.27598e-05
2.97091e-05
1.19005e-05
3.14837e-05
1.30106e-05
3.83029e-05
1.70705e-05
3.85114e-05
1.67257e-05
4.23187e-05
2.29324e-05
4.61629e-05
3.30282e-05
6.26537e-05
4.39874e-05
8.5078e-05
5.22064e-05
0.000126907
6.89021e-05
9.41864e-05
0.000121976
7.27096e-05
0.000220989
0.000167364
0.000495062
0.000150835
0.00176961
2.24886e-05
0.000157582
6.56791e-05
8.44282e-05
5.62873e-05
5.5641e-05
4.92427e-05
6.20333e-05
3.30285e-05
6.57147e-05
2.53564e-05
5.5895e-05
2.77512e-05
4.50114e-05
2.7087e-05
3.50494e-05
2.58697e-05
2.96615e-05
2.42565e-05
2.45319e-05
2.41675e-05
3.27116e-05
2.44591e-05
2.82685e-05
2.74487e-05
2.57553e-05
3.01197e-05
2.06801e-05
2.97957e-05
2.2954e-05
2.93383e-05
1.98615e-05
3.32775e-05
1.72206e-05
3.56291e-05
1.57434e-05
3.65185e-05
1.81661e-05
3.53546e-05
2.16291e-05
4.01885e-05
3.46163e-05
5.32035e-05
5.25997e-05
7.82104e-05
5.56924e-05
0.000108644
7.74863e-05
9.6118e-05
0.000111129
9.06607e-05
0.000237325
0.000142314
0.000479568
0.000163259
0.00181163
4.67864e-05
4.51472e-05
0.00020737
2.33432e-05
4.34301e-05
6.85983e-05
5.27809e-05
4.27356e-05
4.90816e-05
4.32866e-05
4.98207e-05
3.15077e-05
4.041e-05
2.63815e-05
3.23263e-05
2.3035e-05
2.60677e-05
1.93881e-05
2.19454e-05
1.8051e-05
2.34199e-05
1.97063e-05
3.09943e-05
2.30427e-05
2.8873e-05
2.29006e-05
2.49331e-05
2.20026e-05
1.9587e-05
2.50841e-05
1.31701e-05
2.8687e-05
1.21835e-05
3.10083e-05
1.36527e-05
3.81683e-05
1.74528e-05
3.77212e-05
1.68184e-05
4.16745e-05
2.36412e-05
4.51452e-05
3.30535e-05
6.21627e-05
4.48298e-05
8.38941e-05
5.15361e-05
0.000124779
6.90702e-05
9.38659e-05
0.000121486
7.3581e-05
0.000219941
0.000158115
0.00048271
0.000159899
0.0017529
2.18665e-05
0.000163885
7.6866e-05
7.98886e-05
6.30688e-05
5.74404e-05
4.55143e-05
6.30221e-05
3.38193e-05
6.29582e-05
2.48868e-05
6.30308e-05
2.45584e-05
5.19002e-05
2.59986e-05
4.38368e-05
2.50403e-05
3.42377e-05
2.41563e-05
2.87175e-05
2.26349e-05
2.36034e-05
2.3197e-05
3.04838e-05
2.37478e-05
2.59273e-05
2.61966e-05
2.46868e-05
2.88985e-05
2.0688e-05
2.94497e-05
2.18981e-05
2.83133e-05
1.8999e-05
3.23246e-05
1.69443e-05
3.55594e-05
1.58847e-05
3.63424e-05
1.79365e-05
3.5463e-05
2.16221e-05
4.02512e-05
3.52322e-05
5.29072e-05
5.33359e-05
7.75591e-05
5.55057e-05
0.000108668
7.76439e-05
9.60471e-05
0.000112369
8.92083e-05
0.000237446
0.000151507
0.0004651
0.00017194
0.0017932
4.80392e-05
5.60518e-05
0.000221159
2.45309e-05
4.74157e-05
6.7139e-05
5.67679e-05
4.19748e-05
4.59087e-05
4.71473e-05
4.64351e-05
3.80196e-05
4.64465e-05
3.12396e-05
3.82705e-05
2.70378e-05
3.10911e-05
2.32113e-05
2.49303e-05
1.88712e-05
2.07235e-05
1.73479e-05
2.29168e-05
2.00532e-05
3.10521e-05
2.30708e-05
2.77278e-05
2.29373e-05
2.48078e-05
2.17496e-05
1.91447e-05
2.47787e-05
1.33967e-05
2.85422e-05
1.20615e-05
3.10126e-05
1.42579e-05
3.76731e-05
1.74624e-05
3.71263e-05
1.72329e-05
4.0689e-05
2.36038e-05
4.49623e-05
3.32281e-05
6.16163e-05
4.52316e-05
8.27339e-05
5.1649e-05
0.000116607
6.83978e-05
9.35514e-05
0.000120733
7.41968e-05
0.000219428
0.000163827
0.000483945
0.000145339
0.00173043
2.27441e-05
0.000161473
9.20612e-05
7.63248e-05
6.84126e-05
7.13346e-05
4.19921e-05
6.33622e-05
3.47899e-05
6.32057e-05
2.60196e-05
6.07857e-05
2.45963e-05
5.67318e-05
2.32883e-05
4.91391e-05
2.46639e-05
4.19087e-05
2.41982e-05
3.26982e-05
2.32972e-05
2.72773e-05
2.12252e-05
2.29687e-05
2.21578e-05
2.80939e-05
2.29711e-05
2.57989e-05
2.54144e-05
2.43676e-05
2.76353e-05
2.06786e-05
2.91632e-05
2.14969e-05
2.75043e-05
1.87214e-05
3.22042e-05
1.68073e-05
3.5599e-05
1.63013e-05
3.62081e-05
1.81994e-05
3.54044e-05
2.158e-05
4.05101e-05
3.62305e-05
5.28943e-05
5.39992e-05
7.65219e-05
5.52819e-05
0.000112299
7.84353e-05
9.46457e-05
0.000112702
8.69685e-05
0.000240892
0.000150773
0.000507953
0.000160346
0.00177191
4.62203e-05
5.97936e-05
0.00023136
2.41353e-05
5.45372e-05
5.54166e-05
6.12675e-05
3.83552e-05
4.57796e-05
4.87389e-05
4.23928e-05
4.00165e-05
4.58063e-05
3.4965e-05
4.27002e-05
3.05774e-05
3.87063e-05
2.55272e-05
3.05015e-05
2.22269e-05
2.44083e-05
1.85797e-05
2.00335e-05
1.71174e-05
2.21815e-05
2.03897e-05
3.02239e-05
2.27224e-05
2.70772e-05
2.28696e-05
2.29692e-05
2.14089e-05
1.83038e-05
2.45669e-05
1.34438e-05
2.82896e-05
1.20802e-05
3.07351e-05
1.45404e-05
3.71796e-05
1.76293e-05
3.67988e-05
1.76285e-05
4.00585e-05
2.33053e-05
4.50093e-05
3.30361e-05
6.1418e-05
4.54549e-05
8.1588e-05
5.19438e-05
0.000116569
6.84688e-05
9.33702e-05
0.000118522
7.55202e-05
0.000217723
0.000155575
0.00051977
0.000150149
0.00171116
2.07096e-05
0.000142524
9.40393e-05
7.41094e-05
5.81723e-05
8.18225e-05
4.04961e-05
6.17209e-05
3.74774e-05
6.05087e-05
2.6088e-05
6.02606e-05
2.46144e-05
5.68735e-05
2.27466e-05
5.38245e-05
2.23982e-05
4.71897e-05
2.33887e-05
3.97971e-05
2.43241e-05
3.24203e-05
2.20416e-05
2.59928e-05
2.00071e-05
2.25806e-05
2.20172e-05
2.71207e-05
2.25786e-05
2.56536e-05
2.49159e-05
2.39955e-05
2.68224e-05
2.086e-05
2.88361e-05
2.09777e-05
2.71339e-05
1.82608e-05
3.22084e-05
1.66459e-05
3.38904e-05
1.65476e-05
3.61134e-05
1.78971e-05
3.58722e-05
2.16676e-05
4.08176e-05
3.63627e-05
5.30209e-05
5.45648e-05
7.54418e-05
5.53144e-05
0.000110742
7.85402e-05
9.397e-05
0.000113493
8.64782e-05
0.000242972
0.000142627
0.000493864
0.000166437
0.00174984
4.62016e-05
5.4959e-05
0.000236192
3.33079e-05
5.50542e-05
5.29517e-05
6.15755e-05
3.26574e-05
5.05642e-05
5.02771e-05
3.97302e-05
4.24557e-05
4.24889e-05
3.62763e-05
4.26838e-05
3.32271e-05
4.16318e-05
3.04855e-05
3.82454e-05
2.30151e-05
3.10476e-05
2.21228e-05
2.46372e-05
1.8372e-05
1.89749e-05
1.68171e-05
2.15089e-05
2.01422e-05
2.94138e-05
2.20528e-05
2.6901e-05
2.31721e-05
2.27619e-05
2.11348e-05
1.76831e-05
2.42956e-05
1.3294e-05
2.81519e-05
1.18328e-05
3.03588e-05
1.47873e-05
3.73596e-05
1.79841e-05
3.66865e-05
1.80397e-05
4.01271e-05
2.33445e-05
4.49138e-05
3.336e-05
6.09636e-05
4.59647e-05
7.99821e-05
5.22147e-05
0.000115412
6.80852e-05
9.27339e-05
0.000117077
7.5195e-05
0.000218286
0.000165958
0.000508443
0.000158877
0.00169279
1.93718e-05
0.000137031
9.75274e-05
8.75876e-05
5.93895e-05
9.71003e-05
3.99693e-05
6.23592e-05
4.25882e-05
5.45952e-05
2.73587e-05
5.79152e-05
2.60728e-05
5.59012e-05
2.43993e-05
5.27734e-05
2.24023e-05
4.93647e-05
2.13567e-05
4.49534e-05
2.39727e-05
3.80908e-05
2.33634e-05
3.11216e-05
2.10326e-05
2.57342e-05
1.90348e-05
2.21454e-05
2.16875e-05
2.69134e-05
2.27285e-05
2.54084e-05
2.42659e-05
2.37442e-05
2.5981e-05
2.07696e-05
2.8273e-05
2.05859e-05
2.67985e-05
1.65794e-05
3.17719e-05
1.65917e-05
3.40595e-05
1.68134e-05
3.61996e-05
1.79203e-05
3.63041e-05
2.16749e-05
4.1459e-05
3.61016e-05
5.19346e-05
5.50381e-05
7.46782e-05
5.51844e-05
0.000108815
7.83716e-05
9.27148e-05
0.000115326
8.24603e-05
0.000244758
0.000147679
0.000488095
0.000158052
0.00172889
4.42034e-05
4.87396e-05
0.000234749
3.47441e-05
6.13871e-05
5.58144e-05
5.94121e-05
3.41913e-05
6.05026e-05
4.95096e-05
4.31099e-05
4.4195e-05
3.78078e-05
3.64529e-05
4.10406e-05
3.33436e-05
4.02898e-05
3.3299e-05
3.9921e-05
3.10072e-05
3.84583e-05
2.3095e-05
3.10723e-05
2.27279e-05
2.52408e-05
1.77968e-05
1.84307e-05
1.64895e-05
2.11294e-05
2.03108e-05
2.90017e-05
2.17787e-05
2.55677e-05
2.28209e-05
2.25132e-05
2.07259e-05
1.73517e-05
2.43935e-05
1.30257e-05
2.8496e-05
1.22548e-05
3.03009e-05
1.48723e-05
3.70436e-05
1.79205e-05
3.67843e-05
1.828e-05
3.98159e-05
2.27278e-05
4.50524e-05
3.36061e-05
6.20694e-05
4.65145e-05
7.957e-05
5.26305e-05
0.000113802
6.81575e-05
9.18958e-05
0.000113239
6.95062e-05
0.00022036
0.000171284
0.000552676
0.000142452
0.00167433
1.80675e-05
0.000122823
9.65604e-05
0.0001034
6.13146e-05
0.000103988
4.08831e-05
6.38208e-05
4.78556e-05
4.93451e-05
2.7049e-05
5.32001e-05
2.45049e-05
5.49518e-05
2.44367e-05
5.20844e-05
2.46904e-05
4.89261e-05
2.26529e-05
4.78301e-05
2.05676e-05
4.37648e-05
2.33425e-05
3.7034e-05
2.27086e-05
3.02546e-05
2.0667e-05
2.51663e-05
1.82964e-05
2.17911e-05
2.11228e-05
2.6564e-05
2.24835e-05
2.51577e-05
2.36273e-05
2.36175e-05
2.52854e-05
2.04252e-05
2.71561e-05
2.00763e-05
2.64814e-05
1.61724e-05
3.14668e-05
1.64465e-05
3.35563e-05
1.70286e-05
3.64323e-05
1.80615e-05
3.59715e-05
2.12651e-05
4.25166e-05
3.56614e-05
5.17457e-05
5.52785e-05
7.39676e-05
5.56833e-05
0.000106828
7.81851e-05
9.15877e-05
0.00011511
8.279e-05
0.000246948
0.000131559
0.000521933
0.000165688
0.0017071
4.31346e-05
4.0465e-05
0.000238981
3.9221e-05
7.17993e-05
5.55275e-05
6.0039e-05
3.70193e-05
6.44269e-05
4.79624e-05
4.53054e-05
4.29435e-05
3.9986e-05
3.95108e-05
3.66341e-05
3.48778e-05
4.02687e-05
3.30449e-05
3.91888e-05
3.16755e-05
3.81219e-05
2.95013e-05
3.58068e-05
2.33226e-05
3.06949e-05
2.24096e-05
2.47712e-05
1.80602e-05
1.92315e-05
1.62853e-05
2.0857e-05
2.00234e-05
2.82677e-05
2.15483e-05
2.54611e-05
2.23374e-05
2.19472e-05
2.08299e-05
1.75827e-05
2.45691e-05
1.28952e-05
2.8571e-05
1.20892e-05
3.01948e-05
1.49724e-05
3.68627e-05
1.84029e-05
3.66833e-05
1.85302e-05
4.07731e-05
2.25522e-05
4.51649e-05
3.35078e-05
6.22991e-05
4.70314e-05
7.86503e-05
5.29847e-05
0.000112707
6.83331e-05
9.11366e-05
0.000112006
6.8442e-05
0.000222472
0.000171148
0.00054163
0.000151011
0.00165471
1.63674e-05
0.000106261
9.241e-05
0.000114078
6.37874e-05
0.000103916
3.81786e-05
6.87496e-05
5.0295e-05
5.25524e-05
2.82522e-05
5.01388e-05
2.42939e-05
5.14002e-05
2.2743e-05
5.07795e-05
2.52608e-05
4.89153e-05
2.39031e-05
4.60983e-05
2.26867e-05
4.54414e-05
2.03296e-05
4.30986e-05
2.29193e-05
3.59959e-05
2.15991e-05
2.89527e-05
2.04863e-05
2.32183e-05
1.81622e-05
2.15571e-05
2.0531e-05
2.64139e-05
2.18472e-05
2.49209e-05
2.2708e-05
2.32542e-05
2.45323e-05
2.05275e-05
2.68168e-05
1.94701e-05
2.65679e-05
1.59152e-05
3.11843e-05
1.60592e-05
3.31749e-05
1.72804e-05
3.57194e-05
1.81474e-05
3.62177e-05
2.02017e-05
4.30011e-05
3.51519e-05
5.1733e-05
5.52254e-05
7.32263e-05
5.60788e-05
0.000105333
7.77287e-05
9.08606e-05
0.00011403
7.76938e-05
0.000249968
0.00014066
0.000504983
0.000176013
0.00168281
4.3561e-05
3.23622e-05
0.000215553
4.45211e-05
8.09246e-05
5.65574e-05
5.84337e-05
3.93149e-05
6.29163e-05
5.01583e-05
4.80773e-05
4.03154e-05
4.02625e-05
3.77044e-05
3.70248e-05
3.78844e-05
3.81291e-05
3.28534e-05
3.95773e-05
3.2282e-05
3.82546e-05
3.02592e-05
3.82223e-05
2.86804e-05
3.5668e-05
2.31181e-05
3.0542e-05
2.15867e-05
2.42651e-05
1.78545e-05
1.91258e-05
1.59541e-05
2.05904e-05
1.9853e-05
2.81435e-05
2.11987e-05
2.58173e-05
2.18909e-05
2.13869e-05
2.09914e-05
1.74763e-05
2.47373e-05
1.26868e-05
2.84104e-05
1.1809e-05
2.99072e-05
1.50101e-05
3.69129e-05
1.8714e-05
3.71983e-05
1.8699e-05
4.09462e-05
2.24606e-05
4.53736e-05
3.3636e-05
6.22884e-05
4.75276e-05
7.79739e-05
5.37633e-05
0.000111215
6.777e-05
9.05855e-05
0.000109927
6.60981e-05
0.000224115
0.000181031
0.000526293
0.000160667
0.00163485
1.51742e-05
9.37386e-05
8.93035e-05
0.000122229
6.71431e-05
0.000104366
3.3005e-05
7.18546e-05
5.11623e-05
5.42006e-05
2.6996e-05
5.13598e-05
2.50033e-05
4.7939e-05
2.3602e-05
5.00086e-05
2.43957e-05
4.53283e-05
2.40222e-05
4.68294e-05
2.39467e-05
4.43636e-05
2.25875e-05
4.43769e-05
2.09841e-05
4.24026e-05
2.153e-05
3.53803e-05
2.16903e-05
2.87582e-05
1.99072e-05
2.30476e-05
1.78641e-05
2.14286e-05
2.02848e-05
2.53587e-05
2.13726e-05
2.43914e-05