/*--------------------------------*- C++ -*----------------------------------*\
| =========                 |                                                 |
| \\      /  F ield         | OpenFOAM: The Open Source CFD Toolbox           |
|  \\    /   O peration     | Version:  2206                                  |
|   \\  /    A nd           | Website:  www.openfoam.com                      |
|    \\/     M anipulation  |                                                 |
\*---------------------------------------------------------------------------*/
FoamFile
{
    version     2.0;
    format      ascii;
    arch        "LSB;label=32;scalar=64";
    class       volVectorField;
    location    "200";
    object      U;
}
// * * * * * * * * * * * * * * * * * * * * * * * * * * * * * * * * * * * * * //

dimensions      [0 1 -1 0 0 0 0];

internalField   nonuniform List<vector> 
93840
(
(0.709336 -0.969439 3.26597e-18)
(0.733056 0.519773 3.226e-18)
(0.668595 -0.993403 2.1138e-18)
(0.363433 -0.467324 1.02023e-17)
(0.695017 0.539364 5.93969e-18)
(0.636253 -0.942414 -4.00851e-18)
(0.987687 0.510303 1.51899e-17)
(0.587434 -0.0958127 2.3574e-17)
(0.799255 0.463816 2.41965e-19)
(0.658305 -0.820087 -6.98797e-18)
(0.831209 -0.082445 1.49763e-17)
(0.721311 0.0810824 1.54354e-17)
(0.741803 -0.12706 4.55416e-17)
(0.968856 0.404509 -7.69209e-17)
(0.71546 -0.693805 -9.34336e-18)
(0.872343 0.0349602 -9.98535e-17)
(0.714342 0.00129452 2.01047e-17)
(0.382219 0.0704501 -1.50935e-17)
(0.63583 -0.327222 7.13006e-17)
(0.989744 0.26395 -7.6786e-17)
(0.739606 -0.641991 4.21026e-18)
(0.791008 -0.00812815 -2.58615e-17)
(0.832432 0.084738 -6.68854e-17)
(0.731701 -0.0151453 -1.18795e-17)
(0.810362 0.324698 -3.12368e-17)
(0.340593 -0.220193 7.81425e-17)
(0.85097 0.19135 5.90638e-17)
(0.734091 -0.692359 -3.56353e-18)
(0.879094 0.0316275 5.47983e-17)
(0.755293 0.0064056 7.17469e-18)
(0.870271 0.0839508 -1.37396e-16)
(0.750669 -0.0650541 -2.79125e-17)
(0.823803 0.244627 3.51462e-17)
(0.567375 -0.184536 -5.56765e-17)
(0.816577 0.232425 -5.84105e-17)
(0.709409 -0.709384 -1.03923e-17)
(0.793781 -0.0163196 7.61821e-17)
(0.861387 0.0691268 3.85084e-17)
(0.65531 -0.0158979 1.23999e-17)
(0.788829 0.0111609 -1.27754e-16)
(0.737603 -0.0498951 -8.42336e-17)
(0.912225 0.214605 -1.51762e-17)
(0.62771 -0.0351056 -2.25039e-17)
(0.800723 0.254293 4.52522e-17)
(0.69144 -0.716444 4.44835e-20)
(0.911347 0.0355136 -1.83811e-17)
(0.776725 -0.000104388 1.98085e-17)
(0.795889 0.0752689 1.06041e-16)
(0.617876 0.0086265 8.10819e-17)
(0.757624 0.00551958 9.1109e-17)
(0.755813 -0.0239252 -6.65256e-17)
(0.770267 0.0149187 4.55739e-17)
(0.698355 -0.0366887 7.00817e-19)
(0.820528 0.259416 -4.30917e-17)
(0.677201 -0.71809 -5.47029e-18)
(0.801249 -0.0160576 1.31683e-16)
(0.914824 0.0670059 -1.91641e-17)
(0.702763 -0.0116058 1.06509e-17)
(0.809157 0.0118386 4.77841e-17)
(0.688163 0.0127778 5.14664e-17)
(0.778695 0.0041109 2.05856e-17)
(0.718208 0.0118774 -5.54856e-17)
(0.761784 0.054052 -2.92849e-17)
(0.729551 -0.0355242 -2.39285e-17)
(0.805846 0.273204 2.33113e-17)
(0.665825 -0.72089 -2.69129e-18)
(0.894342 0.0354291 -1.09256e-16)
(0.805407 -0.00776366 7.14733e-17)
(0.860446 0.0688658 -1.16439e-17)
(0.694975 0.0116522 3.80725e-17)
(0.787679 0.0190755 1.79683e-17)
(0.722157 0.0211211 -1.54831e-16)
(0.760406 0.0187524 -7.14149e-19)
(0.743169 0.0292625 -9.70337e-17)
(0.773748 0.0166306 8.10533e-17)
(0.740174 -0.0296011 -1.22918e-17)
(0.819207 0.26836 -3.38251e-17)
(0.656617 -0.720733 -3.83408e-18)
(0.774002 -0.0164817 2.20605e-17)
(0.91478 0.0684602 -1.03292e-16)
(0.744389 -0.0144807 9.43867e-17)
(0.852806 0.0142956 1.29179e-17)
(0.729563 0.00535423 -1.25403e-17)
(0.78955 0.00294548 5.54159e-17)
(0.743311 0.0242162 1.58903e-16)
(0.798851 0.037066 1.4102e-16)
(0.720295 0.018082 -1.03406e-16)
(0.767407 0.0411595 1.1892e-17)
(0.749155 -0.0294433 -1.68609e-17)
(0.806988 0.277397 1.32444e-17)
(0.64834 -0.722009 -4.09151e-18)
(0.865429 0.0359918 -1.77334e-16)
(0.776011 -0.0172348 -1.2833e-17)
(0.893399 0.0625238 -1.40721e-16)
(0.738435 0.0176138 1.13849e-16)
(0.810788 0.0177758 6.50999e-17)
(0.724728 0.0177945 7.81766e-17)
(0.804376 0.027179 -1.65249e-17)
(0.754892 0.0228708 -1.25637e-16)
(0.759731 0.023768 3.45723e-17)
(0.747013 0.0294295 -1.32923e-16)
(0.78556 0.0241319 8.244e-17)
(0.754357 -0.0245818 -1.38393e-17)
(0.816158 0.274106 -2.99153e-17)
(0.641312 -0.721236 -3.8716e-18)
(0.760085 -0.0173649 -4.69499e-18)
(0.900972 0.0760968 -2.04333e-16)
(0.754318 -0.00777277 -1.0678e-16)
(0.86946 0.0164874 -2.40898e-16)
(0.749587 0.000541178 -2.09377e-16)
(0.820863 0.00788005 -9.19425e-17)
(0.78546 0.0277432 -5.80611e-17)
(0.814654 0.0285233 -3.1968e-17)
(0.750324 0.018341 1.13381e-16)
(0.805601 0.047837 1.06476e-16)
(0.733456 0.0258666 -8.30663e-17)
(0.770162 0.0413082 2.35587e-17)
(0.759573 -0.0246718 -1.7752e-17)
(0.806562 0.280422 8.47896e-18)
(0.634835 -0.721704 -4.30131e-18)
(0.861536 0.0428962 8.52632e-17)
(0.76719 -0.00896689 1.48556e-16)
(0.901391 0.0630287 -1.21011e-16)
(0.765439 0.0153423 3.92349e-17)
(0.832258 0.0198387 -1.23982e-16)
(0.765264 0.0115625 -6.67595e-17)
(0.831444 0.0310696 4.01226e-17)
(0.756162 0.02631 5.50881e-17)
(0.805645 0.0295695 1.44658e-17)
(0.771891 0.0290518 -1.37289e-16)
(0.774421 0.0238686 2.88903e-17)
(0.751208 0.029298 -1.23508e-16)
(0.791068 0.0285751 6.94164e-17)
(0.763052 -0.0220914 -1.77848e-17)
(0.814435 0.276518 -2.82566e-17)
(0.629197 -0.720538 -4.19614e-18)
(0.767691 -0.0111082 1.00462e-16)
(0.896713 0.0706247 1.24227e-16)
(0.768275 -0.00759964 2.14194e-16)
(0.871086 0.0196752 -6.55628e-17)
(0.762331 0.00263988 9.43886e-17)
(0.852911 0.00392357 1.15523e-16)
(0.778311 0.0255591 7.20047e-17)
(0.826363 0.0281688 -1.43412e-18)
(0.794752 0.0246044 -5.06969e-17)
(0.823657 0.0387047 -9.08038e-17)
(0.756877 0.0173963 1.31865e-16)
(0.811057 0.0496981 9.1125e-17)
(0.741031 0.0298881 -6.71661e-17)
(0.774236 0.0433762 2.31935e-17)
(0.766044 -0.0226567 -1.99652e-17)
(0.805295 0.281632 3.55473e-18)
(0.623772 -0.720622 -4.08026e-18)
(0.863535 0.0369294 1.05966e-17)
(0.773444 -0.0143909 4.23262e-17)
(0.897313 0.0624875 6.88916e-17)
(0.763605 0.0153557 1.33233e-16)
(0.848096 0.0197796 8.44717e-17)
(0.782143 0.00764575 -5.85758e-17)
(0.825211 0.0348523 -2.12804e-16)
(0.768832 0.0205498 -1.22983e-16)
(0.841625 0.0317903 -9.82949e-18)
(0.768012 0.0293392 5.52509e-17)
(0.812457 0.0288738 8.05701e-17)
(0.780478 0.0312563 -1.3693e-16)
(0.776974 0.0305928 1.91138e-17)
(0.754368 0.0293566 -1.21697e-16)
(0.794725 0.0306518 3.96832e-17)
(0.768102 -0.0210064 -1.90189e-17)
(0.81194 0.278344 -2.69313e-17)
(0.619108 -0.719155 -5.36488e-18)
(0.774139 -0.0168991 2.09547e-17)
(0.890954 0.0729792 -1.70595e-17)
(0.762917 -0.00572174 6.86108e-17)
(0.858675 0.0221934 7.81171e-17)
(0.763844 0.00318207 1.55763e-16)
(0.849348 0.00431359 -2.57965e-17)
(0.772221 0.0241616 9.00763e-17)
(0.841771 0.0241127 9.98467e-17)
(0.78852 0.0280354 5.42166e-17)
(0.819815 0.0354153 1.83136e-18)
(0.794071 0.0228866 -5.07713e-17)
(0.835542 0.0423819 -7.49589e-17)
(0.761007 0.0185243 9.51962e-17)
(0.809245 0.0526051 1.11219e-16)
(0.74846 0.0343646 -1.8541e-17)
(0.775861 0.0441359 1.63255e-17)
(0.769962 -0.0214383 -2.06438e-17)
(0.80387 0.282507 8.82621e-19)
(0.614409 -0.718933 -4.8689e-18)
(0.868303 0.0478087 -1.26813e-16)
(0.77601 -0.00264479 -2.41888e-17)
(0.891006 0.0697654 -6.8401e-17)
(0.753439 0.0179333 4.23606e-17)
(0.849089 0.0227238 -5.27515e-18)
(0.778513 0.00566786 -1.17022e-16)
(0.834461 0.0299678 5.1276e-17)
(0.781849 0.0115733 -8.18687e-18)
(0.844086 0.039895 -1.75127e-16)
(0.774452 0.026831 -1.79321e-16)
(0.836745 0.0269353 -1.4972e-17)
(0.773827 0.0286495 7.67279e-17)
(0.819084 0.0332782 4.93871e-17)
(0.784577 0.0316954 -1.37098e-16)
(0.78492 0.0338357 4.43576e-18)
(0.754524 0.0292786 -1.17903e-16)
(0.797717 0.0339222 1.70794e-17)
(0.771427 -0.0201231 -2.00072e-17)
(0.809186 0.279403 -2.56127e-17)
(0.61044 -0.717329 -6.60551e-18)
(0.786206 -0.016682 -1.38264e-16)
(0.89552 0.0652008 -2.00844e-16)
(0.765517 -0.00485297 -8.44329e-17)
(0.859476 0.0231599 -6.7963e-17)
(0.769821 0.00185591 -7.89114e-17)
(0.84635 0.00811049 7.80417e-17)
(0.78622 0.0127032 2.20942e-16)
(0.847895 0.0158997 9.23337e-17)
(0.778739 0.0246161 1.07029e-17)
(0.848712 0.029795 8.90754e-17)
(0.793259 0.0188476 6.61284e-17)
(0.824137 0.0368286 8.0557e-18)
(0.794467 0.0251243 -3.11226e-17)
(0.838044 0.0453514 -4.79361e-17)
(0.763701 0.0229436 8.51668e-17)
(0.814918 0.0511555 1.54529e-16)
(0.754942 0.0344047 -1.00936e-17)
(0.776394 0.0473451 3.95453e-19)
(0.772957 -0.0206839 -2.02722e-17)
(0.802344 0.282843 -1.42123e-18)
(0.606386 -0.716583 -4.23648e-18)
(0.877111 0.0471061 2.66961e-16)
(0.788798 -0.0125356 1.90457e-17)
(0.89557 0.0689019 -9.43355e-17)
(0.754156 0.0158662 -2.77809e-17)
(0.850807 0.0240872 -1.27187e-16)
(0.777961 0.0110567 -5.7032e-17)
(0.841997 0.0246178 -8.24569e-17)
(0.786636 0.0166864 -1.94466e-16)
(0.846412 0.0367683 6.41521e-17)
(0.79412 0.0268945 2.27317e-17)
(0.841464 0.0337142 -1.78229e-16)
(0.774738 0.0264105 -1.08046e-16)
(0.842562 0.0297514 -5.0882e-17)
(0.775159 0.0280257 7.92283e-17)
(0.820229 0.0343203 7.01672e-17)
(0.793398 0.0296357 -1.15177e-16)
(0.791436 0.0384786 2.96418e-17)
(0.75868 0.0264827 -1.08803e-16)
(0.80014 0.0388564 1.18864e-17)
(0.774438 -0.019884 -1.93274e-17)
(0.806297 0.279565 -2.53053e-17)
(0.602881 -0.715091 -6.44813e-18)
(0.802286 -0.000619538 -2.84369e-16)
(0.901074 0.0733752 3.00642e-16)
(0.776023 -0.000809592 9.03197e-17)
(0.860936 0.0273291 -7.42511e-17)
(0.776276 0.00202048 3.72173e-17)
(0.843405 0.0119233 1.06835e-16)
(0.787055 0.00639251 9.29726e-18)
(0.845031 0.0196505 -1.35312e-16)
(0.792924 0.0218963 1.72227e-16)
(0.854659 0.0231962 1.40207e-16)
(0.780497 0.022634 6.49973e-17)
(0.845794 0.0353651 8.36403e-17)
(0.792943 0.0221757 1.06886e-16)
(0.826947 0.038513 -9.91206e-18)
(0.792573 0.027685 -7.62111e-18)
(0.840481 0.0445551 -4.68057e-17)
(0.768293 0.0199612 8.87663e-17)
(0.818161 0.0540893 1.68412e-16)
(0.760412 0.0303618 -3.5591e-18)
(0.776639 0.0512381 2.93173e-18)
(0.775665 -0.0209215 -2.18666e-17)
(0.799751 0.283219 -1.76565e-18)
(0.599382 -0.713953 -4.82609e-18)
(0.882448 0.0379333 1.59871e-16)
(0.805383 -0.00671819 -4.69682e-16)
(0.901194 0.0678258 2.11571e-16)
(0.768498 0.0192019 6.26783e-17)
(0.864793 0.02666 -1.63527e-17)
(0.777081 0.0172461 8.67946e-17)
(0.841185 0.02336 -4.73477e-17)
(0.782939 0.0140677 -8.85399e-17)
(0.855435 0.0366312 -8.18082e-17)
(0.793984 0.0177267 -2.37853e-16)
(0.855375 0.0355379 2.72193e-17)
(0.795146 0.0339045 2.21569e-17)
(0.842167 0.0316566 -2.03719e-16)
(0.780493 0.0283805 -1.35447e-16)
(0.848014 0.0280434 -5.95399e-17)
(0.782484 0.0243615 6.73786e-17)
(0.826959 0.0345408 5.37816e-17)
(0.795057 0.0261736 -1.0422e-16)
(0.794485 0.0428998 2.56193e-17)
(0.764224 0.024971 -1.19283e-16)
(0.800192 0.0403734 -6.91974e-18)
(0.777216 -0.0211887 -1.79568e-17)
(0.802903 0.280254 -2.36426e-17)
(0.596306 -0.712358 -3.62156e-18)
(0.806071 -0.00621268 -5.0384e-17)
(0.906861 0.0646226 2.72895e-16)
(0.782106 -0.00267639 -4.19536e-16)
(0.865758 0.0323578 2.66161e-17)
(0.784901 0.00083285 7.04977e-17)
(0.846321 0.0134925 -1.23065e-16)
(0.78903 0.00627579 -1.95766e-16)
(0.844513 0.0197232 2.81712e-17)
(0.789107 0.0175914 5.52454e-17)
(0.847723 0.0237466 -1.12887e-16)
(0.791253 0.0230453 1.8395e-16)
(0.856632 0.0316084 1.60936e-16)
(0.781011 0.0233245 6.53754e-17)
(0.851684 0.036523 6.87209e-17)
(0.78664 0.0259832 3.1629e-17)
(0.829367 0.038172 9.77832e-18)
(0.789852 0.0262873 -1.02128e-17)
(0.842394 0.0517006 -4.75225e-17)
(0.773349 0.024376 4.86343e-17)
(0.817575 0.0572931 1.93338e-16)
(0.760874 0.0333725 1.59039e-17)
(0.77983 0.0540598 -8.68191e-18)
(0.778175 -0.0226176 -2.27937e-17)
(0.796957 0.28341 -2.77288e-18)
(0.59312 -0.710972 -7.63277e-18)
(0.877632 0.0382305 3.94644e-17)
(0.811451 0.0143633 -5.40456e-17)
(0.906264 0.0673372 1.27004e-16)
(0.781684 0.0216648 -3.84827e-16)
(0.870339 0.0278335 -1.11925e-16)
(0.777026 0.0173477 -6.69113e-17)
(0.839651 0.0192746 -5.99876e-17)
(0.779088 0.00952479 8.87731e-17)
(0.847617 0.0349434 -7.53394e-18)
(0.786321 0.0150915 -5.5753e-18)
(0.851164 0.0327306 -7.99042e-17)
(0.797632 0.0254601 -3.05075e-16)
(0.852821 0.0329114 4.39781e-18)
(0.79695 0.0368805 1.04618e-17)
(0.843696 0.0340342 -2.57406e-16)
(0.78269 0.0275405 -2.92973e-16)
(0.849693 0.035023 -1.10105e-16)
(0.78805 0.0232187 6.37085e-17)
(0.824724 0.0380994 6.08442e-17)
(0.799787 0.0312408 -1.45021e-16)
(0.793334 0.0416806 6.75955e-18)
(0.761753 0.0240553 -1.24642e-16)
(0.800467 0.0436209 -1.93761e-17)
(0.779519 -0.0235009 -1.80524e-17)
(0.799115 0.281227 -2.27775e-17)
(0.590492 -0.709107 -4.1229e-18)
(0.800716 -0.00889725 3.35523e-16)
(0.901095 0.0526184 1.50641e-16)
(0.788102 -0.000356426 -1.75505e-17)
(0.87084 0.0364037 4.03114e-16)
(0.789911 0.000120873 -7.16227e-17)
(0.849011 0.0127981 4.70971e-17)
(0.78821 0.0090653 1.67323e-16)
(0.842498 0.0156022 2.50654e-16)
(0.785249 0.01583 -1.04096e-16)
(0.840224 0.0192369 -6.8085e-18)
(0.793131 0.0171227 1.74237e-17)
(0.853419 0.0285129 -1.00291e-16)
(0.793773 0.02209 1.5856e-16)
(0.864876 0.0339365 1.81166e-16)
(0.780102 0.0233789 3.72086e-17)
(0.842748 0.035681 9.73789e-17)
(0.794409 0.0273111 1.20917e-16)
(0.838233 0.040427 1.40134e-17)
(0.793992 0.025057 9.50839e-18)
(0.84046 0.0451635 1.00009e-17)
(0.778858 0.0177466 2.18504e-17)
(0.812169 0.0574885 2.02765e-16)
(0.761984 0.0328227 2.36002e-17)
(0.782432 0.0564809 -1.75853e-17)
(0.780285 -0.0251498 -1.88771e-17)
(0.794198 0.283437 -3.01923e-18)
(0.587903 -0.707663 -7.45883e-18)
(0.869915 0.0452652 -5.19031e-16)
(0.808709 0.00436132 3.11236e-17)
(0.907332 0.0675534 2.09926e-16)
(0.783727 0.0178616 3.62797e-17)
(0.869186 0.0266399 3.85533e-16)
(0.781745 0.0125233 3.3106e-16)
(0.841495 0.0211954 2.47399e-16)
(0.780195 0.0117312 8.45436e-17)
(0.841167 0.0303654 -8.90522e-18)
(0.780896 0.00433661 8.89412e-17)
(0.854534 0.0332144 -9.38352e-18)
(0.791543 0.0112599 -3.47639e-17)
(0.865261 0.029291 -4.1779e-17)
(0.803626 0.0259528 -2.38535e-16)
(0.853395 0.0303148 -2.46983e-17)
(0.798593 0.0366248 1.82766e-17)
(0.845571 0.0366112 -1.61141e-16)
(0.780594 0.0251871 -1.3144e-16)
(0.855123 0.034828 -1.16615e-16)
(0.795411 0.0255795 6.48199e-17)
(0.836815 0.0472879 2.75307e-17)
(0.793667 0.0311467 -1.59849e-16)
(0.793971 0.0500583 2.98e-17)
(0.761737 0.0239423 -9.69075e-17)
(0.800435 0.0481947 -3.37149e-17)
(0.78143 -0.0267157 -1.66897e-17)
(0.794528 0.282675 -1.93644e-17)
(0.5859 -0.705563 -4.58669e-18)
(0.794116 -0.00046156 2.68025e-16)
(0.888509 0.0587158 -5.73672e-16)
(0.789331 -0.000883531 -2.01721e-16)
(0.869072 0.0373734 1.8719e-17)
(0.790424 0.00235042 -2.16534e-16)
(0.852148 0.0141816 -3.17167e-16)
(0.793087 0.00893767 -3.50781e-16)
(0.836636 0.00997292 -3.75061e-16)
(0.782764 0.0191224 -4.34243e-17)
(0.841262 0.0101636 2.42392e-16)
(0.790108 0.016548 -1.00531e-16)
(0.842779 0.0214294 -1.09057e-17)
(0.791903 0.0178752 1.37356e-17)
(0.855414 0.0287137 -1.36528e-16)
(0.790315 0.0206579 8.9883e-17)
(0.864388 0.0328163 1.99363e-16)
(0.78594 0.0276781 1.07647e-16)
(0.850463 0.0334537 -7.48278e-19)
(0.793634 0.0363963 8.70965e-17)
(0.837713 0.0443756 2.21069e-17)
(0.796971 0.0239923 1.29049e-17)
(0.837805 0.0512103 3.10869e-17)
(0.782843 0.0188986 2.76629e-17)
(0.814983 0.056387 1.80534e-16)
(0.767229 0.0284784 4.49301e-17)
(0.78411 0.0616227 -1.76217e-17)
(0.782029 -0.0288048 -1.69733e-17)
(0.789833 0.285535 -5.05527e-18)
(0.583613 -0.703811 -7.32333e-18)
(0.858497 0.0417511 -6.48102e-18)
(0.799262 -0.00346151 7.66148e-16)
(0.899616 0.0722483 -3.30948e-16)
(0.775438 0.0222585 -1.97687e-16)
(0.861882 0.0314256 -6.35932e-17)
(0.786179 0.00854898 6.36002e-17)
(0.846575 0.022065 9.49803e-17)
(0.78401 0.00441452 1.9025e-16)
(0.840367 0.0244482 3.22507e-16)
(0.782858 0.00914098 1.38232e-16)
(0.839213 0.0293125 -2.41753e-17)
(0.785641 0.00858532 1.1887e-16)
(0.851925 0.0334844 2.18556e-17)
(0.793673 0.0149535 -2.41859e-17)
(0.860591 0.0290501 -1.85334e-17)
(0.801182 0.0250644 -2.97875e-16)
(0.852543 0.028501 -1.15874e-16)
(0.796491 0.0345604 5.44155e-18)
(0.845553 0.0364776 -1.59715e-16)
(0.787974 0.0265964 -1.80928e-16)
(0.843604 0.0449584 -4.65077e-17)
(0.78994 0.0270472 6.54483e-17)
(0.837214 0.0442665 5.52758e-17)
(0.797246 0.0299496 -1.73884e-16)
(0.797968 0.0473038 2.01888e-17)
(0.764654 0.0206342 -8.53621e-17)
(0.801003 0.0522114 -4.3383e-17)
(0.782633 -0.0311747 -1.44114e-17)
(0.789195 0.285086 -1.79719e-17)
(0.582212 -0.701583 -4.74723e-18)
(0.78822 -0.00347879 -2.68965e-16)
(0.873216 0.0599135 -3.80005e-16)
(0.781375 0.0164347 6.8571e-16)
(0.862927 0.0372188 -5.87626e-17)
(0.790351 0.0072951 -2.89971e-16)
(0.851319 0.012437 -4.05472e-16)
(0.789767 0.00960119 -3.1785e-16)
(0.836602 0.00580373 -2.44461e-16)
(0.787671 0.0111523 -3.08903e-16)
(0.842041 0.0131688 -4.83371e-16)
(0.779936 0.0148145 -2.12132e-16)
(0.851305 0.0137409 2.43769e-16)
(0.789217 0.0144413 -4.15665e-17)
(0.84557 0.023026 1.87332e-17)
(0.792934 0.0218487 4.392e-17)
(0.858928 0.0292058 -1.85885e-16)
(0.787167 0.0235231 1.64635e-16)
(0.865278 0.0325734 2.48056e-16)
(0.788475 0.0258896 1.03432e-16)
(0.85025 0.0294265 2.57918e-17)
(0.795331 0.0304692 -5.80274e-17)
(0.843241 0.042194 3.56136e-19)
(0.804838 0.0235766 3.74986e-17)
(0.844538 0.0544469 -9.21666e-19)
(0.786229 0.0279062 -3.43091e-17)
(0.817193 0.0547006 1.49977e-16)
(0.765246 0.0300456 7.32062e-17)
(0.785964 0.0664689 -1.9913e-17)
(0.783202 -0.0338864 -1.50908e-17)
(0.785067 0.288193 -1.6278e-18)
(0.580442 -0.69962 -6.94791e-18)
(0.849631 0.0438625 3.99009e-16)
(0.797422 0.0109228 -1.04844e-16)
(0.889866 0.0623164 -3.16526e-16)
(0.771105 0.0151536 4.99851e-16)
(0.857986 0.0324618 2.71903e-16)
(0.782619 0.00753862 2.14981e-16)
(0.836494 0.024216 2.7709e-16)
(0.779857 0.0015953 3.5786e-16)
(0.8377 0.0324268 2.16586e-16)
(0.782097 0.0135633 1.54858e-16)
(0.831642 0.0316319 2.13729e-16)
(0.783173 0.0130282 1.25656e-16)
(0.848499 0.031359 -3.65171e-17)
(0.788102 0.0120162 1.33241e-16)
(0.850773 0.0333596 5.44009e-17)
(0.794038 0.0172341 -7.06609e-17)
(0.861919 0.0288289 2.22192e-17)
(0.794038 0.0240426 -3.43307e-16)
(0.846165 0.0290618 -1.0646e-16)
(0.794417 0.0287216 4.27728e-17)
(0.846454 0.0387969 -1.82178e-16)
(0.794561 0.0292565 -7.53539e-17)
(0.849956 0.0380796 -1.34011e-16)
(0.791751 0.0281606 2.37662e-17)
(0.838239 0.0423622 7.38904e-17)
(0.803144 0.0320647 -1.51357e-16)
(0.798741 0.0538278 -1.31902e-17)
(0.762883 0.02092 -5.67102e-17)
(0.802826 0.0574291 -3.5286e-17)
(0.783544 -0.0369308 -1.27875e-17)
(0.782247 0.289606 -1.8503e-17)
(0.579721 -0.697295 -4.64736e-18)
(0.782029 -0.00172782 -2.81183e-16)
(0.852501 0.0585918 5.23046e-16)
(0.7674 0.00558639 8.12793e-17)
(0.856043 0.0392144 -5.60075e-16)
(0.783719 0.0137147 3.85733e-16)
(0.844706 0.0128023 3.93254e-16)
(0.78108 0.0138606 3.34674e-16)
(0.832554 0.00511505 7.54026e-18)
(0.78102 0.0107816 -2.22426e-16)
(0.847745 0.015678 -2.17031e-16)
(0.78669 0.0152434 -3.76835e-16)
(0.84442 0.0141152 -5.06876e-16)
(0.779794 0.0169042 -2.1343e-16)
(0.853971 0.0164233 2.48075e-16)
(0.789397 0.0158029 -3.64346e-17)
(0.856424 0.0249448 -1.25578e-20)
(0.794001 0.0188524 6.70092e-17)
(0.867646 0.029611 -2.06967e-16)
(0.783638 0.0225458 9.72974e-17)
(0.862549 0.030235 2.43197e-16)
(0.785505 0.0321221 8.24768e-17)
(0.84939 0.027289 2.64113e-17)
(0.797184 0.0302078 -6.24073e-17)
(0.833944 0.0511111 6.29735e-17)
(0.803927 0.0277895 2.89249e-17)
(0.84154 0.0609144 -5.72363e-17)
(0.78254 0.0258024 2.2533e-17)
(0.818035 0.0616577 1.7666e-16)
(0.764292 0.0348866 6.12785e-17)
(0.789468 0.0719198 -1.66743e-17)
(0.783964 -0.0398036 -1.39242e-17)
(0.77866 0.293907 -5.58581e-19)
(0.578401 -0.69516 -1.21794e-17)
(0.84192 0.0470471 3.20043e-17)
(0.795437 0.0158907 -5.64114e-16)
(0.869671 0.0661157 2.78922e-16)
(0.760783 0.0213943 1.99297e-16)
(0.845127 0.0379282 -6.92279e-16)
(0.774842 0.00936265 -6.61949e-16)
(0.826205 0.0251301 -5.06939e-16)
(0.780408 0.00215583 -5.1025e-16)
(0.827904 0.0352773 -1.31335e-16)
(0.780788 0.0110427 2.28164e-16)
(0.838608 0.0279174 1.94364e-16)
(0.789258 0.0116068 9.27752e-17)
(0.842898 0.0305208 2.755e-16)
(0.785162 0.0110658 2.81443e-16)
(0.850002 0.0316148 -2.87111e-17)
(0.785721 0.0147178 1.44514e-16)
(0.847466 0.0330926 6.30334e-17)
(0.792738 0.0191078 -7.06556e-17)
(0.856498 0.0264116 5.9661e-17)
(0.791812 0.0235583 -2.01954e-16)
(0.848317 0.0306874 -1.14091e-16)
(0.796778 0.0262155 9.65657e-17)
(0.850985 0.0417512 -1.57742e-16)
(0.800663 0.0300018 -7.14298e-17)
(0.839415 0.0400876 -1.23907e-16)
(0.801759 0.0296631 2.45046e-17)
(0.838821 0.0459653 9.0564e-17)
(0.798772 0.034414 -1.35665e-16)
(0.80286 0.0575085 -1.42724e-18)
(0.761282 0.0272885 -6.00774e-17)
(0.805987 0.063788 -2.24105e-17)
(0.78395 -0.0429122 -7.95074e-18)
(0.774451 0.293893 -1.65558e-17)
(0.577356 -0.692597 -1.65444e-18)
(0.779296 0.00716337 -4.44607e-18)
(0.841827 0.0436376 5.97888e-17)
(0.76067 0.00617756 -6.77002e-16)
(0.852326 0.0407508 8.61221e-17)
(0.781337 0.0170586 6.1322e-16)
(0.840319 0.016608 4.21378e-16)
(0.773841 0.0178566 3.69899e-16)
(0.827541 0.00827203 4.3369e-16)
(0.786712 0.0129817 4.52511e-16)
(0.83926 0.0119578 2.50975e-16)
(0.78768 0.020507 -1.24444e-16)
(0.850137 0.0151121 -2.44332e-16)
(0.787333 0.0158522 -2.30602e-16)
(0.852977 0.0154141 -4.93251e-16)
(0.782626 0.0175193 -3.06325e-16)
(0.85245 0.0193241 2.02399e-16)
(0.792377 0.0177793 -2.59774e-17)
(0.857975 0.0266833 -1.2907e-17)
(0.788737 0.0202001 6.48649e-17)
(0.861834 0.0309941 -2.1153e-16)
(0.784801 0.0217118 -2.3705e-17)
(0.854619 0.0311592 1.61689e-16)
(0.788697 0.0360368 8.96523e-17)
(0.843911 0.0265706 1.19556e-16)
(0.804204 0.030973 -7.12481e-17)
(0.834036 0.0471662 -4.04213e-17)
(0.800751 0.0230258 3.38827e-17)
(0.842852 0.0587674 -1.89243e-17)
(0.788485 0.0309792 -3.7343e-17)
(0.816817 0.0600755 1.24078e-16)
(0.768712 0.0418747 4.44984e-17)
(0.796842 0.0782088 -1.33948e-17)
(0.780498 -0.0450091 -1.80097e-17)
(0.809022 0.262984 -5.52473e-19)
(0.575087 -0.692112 -8.93196e-18)
(0.842322 0.0331441 6.53474e-17)
(0.78665 0.000501234 4.64219e-17)
(0.853891 0.0721977 3.62339e-16)
(0.75556 0.0203131 -6.03061e-16)
(0.840957 0.0406233 -1.48958e-16)
(0.772524 0.011161 2.48881e-16)
(0.819322 0.0264414 1.01453e-16)
(0.780213 0.0110303 -4.20632e-17)
(0.81811 0.0181694 -1.39583e-16)
(0.793368 0.0101755 -5.01388e-16)
(0.832852 0.0304886 -2.36326e-16)
(0.787322 0.0158503 1.34816e-16)
(0.83808 0.0264241 1.80799e-16)
(0.789514 0.0111076 1.14983e-16)
(0.843816 0.0278329 2.41853e-16)
(0.788222 0.0158153 1.00413e-16)
(0.847981 0.0307338 3.02269e-17)
(0.787457 0.0122925 1.31818e-16)
(0.855463 0.032892 7.8589e-17)
(0.791861 0.0195855 -7.14102e-17)
(0.847054 0.0235819 -2.27047e-17)
(0.793349 0.0223935 -2.37923e-16)
(0.846016 0.032936 -7.52419e-17)
(0.795177 0.0229727 1.13683e-16)
(0.843085 0.0434137 -1.30964e-16)
(0.80249 0.0291843 -6.21074e-17)
(0.8467 0.0486507 -2.93398e-17)
(0.804521 0.0271904 2.43031e-17)
(0.830466 0.0510753 3.96732e-17)
(0.800782 0.0350544 -1.83596e-16)
(0.806949 0.0599041 -3.14716e-17)
(0.761441 0.0338912 -3.83232e-17)
(0.810736 0.0691964 -2.43389e-17)
(0.751375 -0.0253228 -8.87996e-18)
(0.806954 0.266576 -1.67406e-17)
(0.574131 -0.690251 2.01601e-18)
(0.783916 -0.00539813 -2.04543e-17)
(0.845229 0.0581055 6.68141e-17)
(0.760665 0.0107328 -1.89086e-17)
(0.848056 0.0403431 4.76457e-16)
(0.777867 0.0196527 -3.67719e-16)
(0.841163 0.0200929 -4.68318e-16)
(0.774873 0.0189865 -3.59908e-16)
(0.825955 0.0148391 -1.87284e-16)
(0.784998 0.0101421 -2.96003e-17)
(0.834684 0.0120964 3.61458e-17)
(0.786198 0.0104336 5.04024e-16)
(0.84449 0.0156196 3.02622e-16)
(0.785436 0.0201596 -1.1297e-16)
(0.846878 0.0152208 -2.3165e-16)
(0.788424 0.0242958 -3.76424e-16)
(0.850961 0.0165063 -5.61345e-16)
(0.79039 0.0166965 -8.72911e-17)
(0.856728 0.01994 2.12886e-16)
(0.789159 0.0187166 5.00567e-17)
(0.855069 0.0277764 -1.74969e-18)
(0.789164 0.0200571 4.23354e-17)
(0.854937 0.0277685 -2.49447e-16)
(0.784536 0.0252341 4.1174e-17)
(0.855109 0.0272237 1.68553e-16)
(0.791502 0.0336432 1.04952e-16)
(0.846506 0.0365054 -5.1406e-17)
(0.804153 0.0288902 -5.43102e-17)
(0.837572 0.0498166 -1.37779e-17)
(0.803383 0.0266992 2.78086e-17)
(0.840174 0.0562165 2.04634e-17)
(0.785101 0.0290472 -3.08339e-17)
(0.820387 0.0607977 1.2213e-16)
(0.764964 0.0476768 6.36998e-17)
(0.808355 0.0737778 -5.83454e-18)
(0.756735 -0.0245155 -1.56378e-17)
(0.79608 0.272254 -1.82919e-18)
(0.572865 -0.68866 -7.26863e-18)
(0.845158 0.0521118 1.66129e-16)
(0.800821 0.00620945 1.92533e-16)
(0.849913 0.0738448 7.87969e-18)
(0.763556 0.0167867 -6.77835e-18)
(0.846043 0.0430531 5.86186e-16)
(0.780769 0.0122138 3.23933e-16)
(0.820942 0.026203 -8.58251e-17)
(0.779473 0.0199672 1.84318e-17)
(0.80849 0.0317239 1.40752e-16)
(0.786474 0.000994225 5.05942e-17)
(0.840603 0.0220746 -7.96322e-17)
(0.791526 0.0089813 -5.63644e-16)
(0.837503 0.0281179 -2.77158e-16)
(0.787367 0.0140343 1.75309e-16)
(0.833797 0.0328952 2.98158e-16)
(0.796206 0.0101097 1.17723e-16)
(0.846059 0.0293747 3.26083e-16)
(0.792097 0.0182046 -1.53423e-17)
(0.844695 0.0314526 -2.29499e-17)
(0.794781 0.0173657 8.06633e-17)
(0.852363 0.0304484 8.56333e-17)
(0.794766 0.0180256 -4.55594e-17)
(0.843212 0.0264134 6.75967e-17)
(0.793764 0.0232833 -1.1042e-16)
(0.848036 0.0342264 -2.39465e-17)
(0.79782 0.0293479 1.09219e-16)
(0.849221 0.0408374 -9.78367e-17)
(0.805625 0.0293974 -5.93688e-17)
(0.840506 0.0463972 -7.64501e-17)
(0.807015 0.0291694 1.8041e-17)
(0.828717 0.0496119 9.63613e-17)
(0.796231 0.0344712 -1.20121e-16)
(0.812068 0.0629335 7.03152e-17)
(0.762333 0.0346312 -7.35285e-17)
(0.818997 0.0618204 -1.38352e-17)
(0.762538 -0.029625 -1.53893e-17)
(0.795743 0.276238 -1.81714e-17)
(0.571899 -0.686612 -4.33655e-18)
(0.793257 0.00940192 -1.48441e-16)
(0.85291 0.0566804 1.91559e-16)
(0.770399 0.00933656 2.06894e-16)
(0.853578 0.0430885 2.2768e-16)
(0.790514 0.021979 -7.70892e-17)
(0.848499 0.0229404 1.43571e-16)
(0.782802 0.0180344 2.22589e-16)
(0.825036 0.0208008 1.61367e-16)
(0.783075 0.00961909 2.57928e-17)
(0.830626 0.0178446 -3.89151e-17)
(0.778254 0.0129593 -6.70995e-17)
(0.841504 0.0112885 9.70295e-17)
(0.784984 0.0134263 6.20581e-16)
(0.845562 0.0145539 2.85427e-16)
(0.783163 0.0236813 -1.07056e-16)
(0.846938 0.0172665 -1.01247e-16)
(0.787474 0.0227795 -2.18636e-16)
(0.852421 0.0192268 -3.67632e-16)
(0.794361 0.0161383 -1.47532e-16)
(0.854689 0.0238359 1.21586e-16)
(0.792721 0.01955 8.58989e-17)
(0.856246 0.0280275 6.17588e-18)
(0.791347 0.0218539 3.21467e-17)
(0.853159 0.029399 -1.72166e-16)
(0.792215 0.024055 -9.81057e-17)
(0.851397 0.0294489 1.04238e-16)
(0.798423 0.0302687 1.12804e-16)
(0.84348 0.0354959 8.33653e-17)
(0.807152 0.0299176 -5.7669e-17)
(0.832088 0.0529107 -1.22134e-18)
(0.804843 0.0260236 4.86551e-17)
(0.844438 0.0531904 7.1097e-17)
(0.781989 0.0245332 -1.86267e-17)
(0.818593 0.059325 3.33027e-17)
(0.762244 0.0498142 6.02297e-17)
(0.809901 0.0756596 -3.07896e-18)
(0.766014 -0.0343331 -1.39709e-17)
(0.784883 0.27936 -3.80834e-18)
(0.570751 -0.684702 -1.88554e-18)
(0.847697 0.0373409 -5.35224e-18)
(0.816195 0.0155763 -3.84178e-16)
(0.850797 0.0714511 5.80954e-17)
(0.774319 0.0176983 3.03602e-17)
(0.854723 0.0465275 -5.09752e-18)
(0.787707 0.0174529 -4.39891e-16)
(0.829138 0.0238298 -3.87343e-16)
(0.784631 0.0217927 -1.98434e-16)
(0.804383 0.0224579 -1.50725e-16)
(0.781891 0.00392996 6.12151e-18)
(0.82134 0.0320673 1.13365e-16)
(0.784168 0.00460182 1.02774e-16)
(0.834607 0.0326997 -5.82282e-17)
(0.789998 0.0106953 -4.5649e-16)
(0.835 0.0273746 -2.27223e-16)
(0.788945 0.0158702 1.76577e-16)
(0.838752 0.0227204 6.58687e-18)
(0.791228 0.0152847 1.01037e-16)
(0.843448 0.0324035 2.84643e-16)
(0.797723 0.0195623 -1.41941e-16)
(0.852439 0.0267313 9.08174e-17)
(0.797066 0.0194411 8.82181e-17)
(0.841264 0.0287593 7.32563e-17)
(0.797936 0.0207997 -5.56678e-19)
(0.843651 0.0255848 -4.08229e-17)
(0.798874 0.0242551 -9.61236e-17)
(0.83646 0.0352401 -9.7841e-17)
(0.800966 0.0304263 1.143e-16)
(0.840925 0.0409292 -1.26301e-16)
(0.811822 0.0308216 -5.5128e-17)
(0.838398 0.0497001 -4.43432e-17)
(0.806993 0.0393633 5.09463e-17)
(0.834332 0.0607393 1.225e-18)
(0.796765 0.0333989 -2.17415e-16)
(0.806707 0.0610176 -9.67821e-18)
(0.764679 0.036473 -5.20389e-17)
(0.811248 0.0663049 -1.34678e-17)
(0.764391 -0.0356996 -1.92782e-17)
(0.822996 0.250607 -2.49014e-17)
(0.568808 -0.684417 -1.41726e-17)
(0.805668 0.0086792 -1.72268e-16)
(0.864902 0.044532 -1.83117e-16)
(0.785115 -0.00247467 -4.33273e-16)
(0.866785 0.0467545 -2.47028e-16)
(0.799714 0.0220816 -2.72202e-16)
(0.85575 0.0269007 -7.87545e-17)
(0.791416 0.0181608 -3.29743e-17)
(0.832102 0.0283021 -9.20615e-17)
(0.77602 0.0119441 3.73077e-17)
(0.841102 0.0224976 1.96227e-16)
(0.788425 0.0119095 4.1458e-17)
(0.838128 0.0136249 -4.55306e-18)
(0.781028 0.0204434 -6.77969e-17)
(0.839866 0.0124498 8.40544e-17)
(0.78294 0.0125457 2.6535e-16)
(0.849714 0.0133627 2.92698e-16)
(0.784276 0.023672 -1.00007e-16)
(0.848571 0.0200494 -2.84234e-17)
(0.790238 0.018833 -5.08665e-17)
(0.852663 0.0180473 -6.7323e-16)
(0.796307 0.0159575 -5.99043e-17)
(0.849886 0.0269931 1.40056e-16)
(0.79889 0.0194995 9.4517e-17)
(0.853003 0.0279182 -3.04468e-18)
(0.797783 0.0211289 -1.88121e-18)
(0.847777 0.0282936 -2.45127e-16)
(0.806697 0.0239458 -1.03217e-16)
(0.840189 0.0273097 2.39916e-16)
(0.802702 0.0313861 1.18333e-16)
(0.839023 0.0339938 1.48686e-16)
(0.815017 0.0304895 -5.12713e-17)
(0.840535 0.0534082 -8.26595e-18)
(0.806465 0.0286874 4.48998e-17)
(0.841329 0.058124 2.38132e-17)
(0.788 0.0296087 -9.13062e-18)
(0.816448 0.0627704 1.57356e-16)
(0.765897 0.0467526 3.93522e-17)
(0.811408 0.0775395 -8.49106e-18)
(0.740494 -0.0193678 -1.84733e-17)
(0.813608 0.256324 -1.36938e-18)
(0.567835 -0.682618 -2.63594e-19)
(0.851272 0.0461011 1.05048e-16)
(0.829448 0.00522438 -2.98429e-16)
(0.860967 0.0817152 -3.63404e-17)
(0.790588 0.0216037 -2.42582e-16)
(0.865948 0.0441066 -1.23278e-16)
(0.795308 0.0246605 -1.41961e-16)
(0.835522 0.0217629 2.33377e-16)
(0.786187 0.0257704 3.60505e-16)
(0.795528 0.0311127 1.08109e-16)
(0.788615 0.0170162 -2.70348e-17)
(0.797429 0.0174965 -9.7994e-17)