/*--------------------------------*- C++ -*----------------------------------*\
| =========                 |                                                 |
| \\      /  F ield         | OpenFOAM: The Open Source CFD Toolbox           |
|  \\    /   O peration     | Version:  2206                                  |
|   \\  /    A nd           | Website:  www.openfoam.com                      |
|    \\/     M anipulation  |                                                 |
\*---------------------------------------------------------------------------*/
FoamFile
{
    version     2.0;
    format      ascii;
    arch        "LSB;label=32;scalar=64";
    class       volVectorField;
    location    "200";
    object      UMean;
}
// * * * * * * * * * * * * * * * * * * * * * * * * * * * * * * * * * * * * * //

dimensions      [0 1 -1 0 0 0 0];

internalField   nonuniform List<vector> 
93840
(
(0.710343 -0.817353 6.49224e-18)
(0.768602 0.408127 7.62818e-18)
(0.64643 -0.806376 6.2351e-18)
(0.57515 -0.368082 1.34737e-18)
(0.765504 0.396219 6.51473e-18)
(0.610805 -0.735021 6.58912e-18)
(1.05008 0.390669 4.59745e-17)
(0.665097 -0.113609 9.7808e-18)
(0.833835 0.364168 3.27921e-18)
(0.652594 -0.611034 1.14738e-17)
(0.868057 -0.0960778 -1.07877e-17)
(0.873709 0.0755575 7.23556e-17)
(0.777474 -0.101381 2.1258e-17)
(0.933161 0.306389 -5.93407e-17)
(0.690176 -0.47865 -8.61664e-18)
(0.878462 0.0405245 -1.53962e-16)
(0.788409 -0.0401259 -3.00178e-17)
(0.642188 0.0797986 2.63097e-17)
(0.701528 -0.226529 2.90279e-17)
(0.91731 0.183942 -7.3216e-17)
(0.715537 -0.400126 4.27633e-18)
(0.802151 -0.0190616 -1.61081e-17)
(0.892593 0.0748524 -1.73599e-16)
(0.785163 -0.0222535 -4.84275e-17)
(0.916071 0.257577 2.88527e-17)
(0.561317 -0.127359 1.86795e-17)
(0.869043 0.126554 5.56952e-17)
(0.731765 -0.405083 6.6255e-20)
(0.834596 0.0387797 6.55188e-17)
(0.787569 -0.0392663 1.46489e-17)
(0.905496 0.0829631 -1.3544e-16)
(0.814719 -0.0565599 -7.63522e-17)
(0.882135 0.171165 8.2249e-17)
(0.70057 -0.0801122 -2.04966e-17)
(0.847916 0.147808 -4.37432e-17)
(0.736681 -0.399801 -1.14172e-17)
(0.799205 -0.0172575 7.5615e-17)
(0.870974 0.0728896 8.24256e-17)
(0.761899 -0.0205839 1.50043e-17)
(0.85799 0.0492862 -1.50158e-16)
(0.772687 -0.0509084 -1.64382e-16)
(0.92989 0.134373 -4.12378e-17)
(0.725267 -0.0102703 -4.28339e-17)
(0.836206 0.157662 4.16136e-17)
(0.724203 -0.400908 4.88279e-18)
(0.850109 0.0396193 -9.16925e-18)
(0.805946 -0.0262456 7.15793e-17)
(0.866873 0.0745978 9.56195e-17)
(0.736125 -0.00366047 1.34835e-16)
(0.853774 0.0545676 9.71471e-17)
(0.785678 -0.00516768 -3.48366e-17)
(0.835126 0.025806 8.92897e-17)
(0.763522 -0.0284526 1.3311e-17)
(0.846118 0.154322 -3.17578e-17)
(0.733894 -0.390031 -2.98985e-18)
(0.80334 -0.0158516 1.33085e-16)
(0.885323 0.0545906 1.16054e-18)
(0.773504 -0.0190127 4.33033e-17)
(0.836592 0.0448538 8.37606e-17)
(0.753518 -0.01955 6.17336e-17)
(0.863221 0.0316139 4.25863e-17)
(0.768095 0.0199902 -6.89857e-17)
(0.834457 0.054571 -4.79275e-17)
(0.779394 -0.0176257 -4.4416e-17)
(0.835324 0.160464 2.21379e-17)
(0.713508 -0.399998 1.97705e-18)
(0.851027 0.0396415 -1.16285e-16)
(0.804265 -0.017168 1.15611e-16)
(0.880749 0.0664831 -9.23067e-18)
(0.790954 0.00194003 2.4592e-17)
(0.881697 0.0534002 3.22792e-17)
(0.7776 0.0186164 -9.47853e-17)
(0.841674 0.0241977 -1.13563e-17)
(0.792468 0.0201096 -6.20896e-17)
(0.820692 0.029084 6.81175e-17)
(0.787316 -0.0184826 4.13298e-18)
(0.84166 0.1571 -2.5281e-17)
(0.715552 -0.381376 -1.0531e-18)
(0.784998 -0.0148297 -9.26266e-18)
(0.872399 0.0539272 -1.52856e-16)
(0.781842 -0.0139471 8.7313e-17)
(0.872793 0.037601 1.98158e-17)
(0.808035 -0.00716284 8.75563e-18)
(0.878611 0.0338814 3.48656e-17)
(0.800861 0.0159616 1.29152e-16)
(0.854894 0.0368619 1.05083e-16)
(0.782376 0.0176545 -4.29817e-17)
(0.82658 0.0455621 -3.57777e-17)
(0.792587 -0.0137318 -3.54055e-17)
(0.836991 0.162227 1.38913e-17)
(0.706796 -0.393807 8.6062e-19)
(0.838463 0.0393242 -1.31704e-16)
(0.779925 -0.0151715 -8.02302e-18)
(0.870628 0.0604624 -1.37673e-16)
(0.785517 0.00488232 7.44649e-17)
(0.863557 0.0383527 1.99774e-17)
(0.788961 0.0169026 1.35653e-17)
(0.87078 0.0289238 -5.14539e-17)
(0.80631 0.0294229 -9.83365e-17)
(0.828072 0.0257335 -2.6114e-18)
(0.802508 0.0179043 -7.23881e-17)
(0.823618 0.0331871 5.40536e-17)
(0.790827 -0.0137378 6.08617e-18)
(0.841737 0.156141 -2.16931e-17)
(0.70978 -0.374207 -9.96507e-19)
(0.787125 -0.0139843 1.01366e-17)
(0.856644 0.0529699 -1.39957e-16)
(0.765733 -0.0101749 4.62465e-18)
(0.854208 0.0366824 -2.16304e-16)
(0.797217 -0.000878356 -1.3106e-16)
(0.868584 0.032159 -7.83326e-17)
(0.815028 0.0146389 -7.05923e-17)
(0.875343 0.0372815 -2.28795e-17)
(0.8133 0.0193642 6.86293e-17)
(0.852033 0.0413457 1.20495e-16)
(0.789202 0.0175898 -3.11973e-17)
(0.826496 0.0448111 -2.49511e-17)
(0.79599 -0.0103592 -3.5107e-17)
(0.837285 0.160704 9.82806e-18)
(0.701095 -0.388339 1.14153e-18)
(0.841735 0.0390011 3.65184e-17)
(0.778692 -0.0131062 3.64784e-17)
(0.854809 0.0563898 -1.38675e-16)
(0.76506 0.00510431 1.06207e-17)
(0.845773 0.0343839 -7.95545e-17)
(0.786796 0.0169489 -1.88735e-17)
(0.859137 0.0295211 8.49476e-17)
(0.796866 0.0274781 4.50304e-17)
(0.856405 0.0247119 -1.864e-17)
(0.815947 0.0261738 -9.46446e-17)
(0.832787 0.0276942 -7.28603e-19)
(0.804368 0.0174133 -7.65001e-17)
(0.824629 0.0343247 4.36672e-17)
(0.794769 -0.0105183 4.72641e-18)
(0.841326 0.155308 -1.95095e-17)
(0.70507 -0.368182 -8.41312e-19)
(0.793914 -0.0133469 1.01345e-16)
(0.857915 0.0517268 7.83491e-17)
(0.768674 -0.00757711 7.35032e-17)
(0.842289 0.0371384 -1.52404e-16)
(0.790263 0.00172136 3.65962e-17)
(0.851953 0.0314006 9.97261e-17)
(0.799759 0.0135854 1.06863e-16)
(0.858671 0.0365548 -1.52904e-18)
(0.816259 0.0171413 -5.15863e-17)
(0.870725 0.0391307 -3.33388e-17)
(0.818435 0.0194083 4.33864e-17)
(0.85359 0.0443189 1.22138e-16)
(0.793892 0.0179276 -2.21753e-17)
(0.825898 0.0441784 -1.89198e-17)
(0.797547 -0.00737224 -3.52846e-17)
(0.836682 0.159376 5.79957e-18)
(0.697995 -0.383141 1.63677e-18)
(0.848356 0.0381755 -4.48359e-17)
(0.78575 -0.0111535 9.49044e-17)
(0.855845 0.0532597 9.40002e-17)
(0.774244 0.00593467 1.72351e-16)
(0.847828 0.0343057 5.64804e-17)
(0.788149 0.0177319 -7.83891e-17)
(0.848956 0.0297042 -2.28824e-16)
(0.792419 0.0255785 -1.28183e-16)
(0.851745 0.0282509 4.43611e-17)
(0.802285 0.0289652 5.15111e-17)
(0.854605 0.0244044 -2.03927e-18)
(0.821323 0.0256854 -8.50021e-17)
(0.834654 0.0292318 3.67883e-18)
(0.804998 0.0180938 -7.83854e-17)
(0.825132 0.0352737 3.7191e-17)
(0.797693 -0.00823556 4.76476e-18)
(0.8403 0.154719 -1.78251e-17)
(0.701589 -0.36293 -1.65475e-18)
(0.803116 -0.0126437 2.68915e-17)
(0.863172 0.0508414 -4.46334e-17)
(0.780685 -0.00492906 6.15613e-17)
(0.845231 0.0381271 1.19628e-16)
(0.800719 0.00452263 1.65609e-16)
(0.853725 0.031933 -2.83134e-17)
(0.807137 0.0137903 2.3918e-17)
(0.854927 0.0366976 5.91131e-17)
(0.80351 0.0158916 1.33317e-16)
(0.854168 0.0372673 2.82364e-17)
(0.816244 0.0173668 -4.33827e-17)
(0.86849 0.0397599 -4.06594e-17)
(0.822103 0.0191778 1.88496e-17)
(0.853889 0.0453143 1.24054e-16)
(0.797783 0.0188596 -1.78869e-17)
(0.82458 0.0439764 -1.79286e-17)
(0.799599 -0.00548346 -3.42151e-17)
(0.835949 0.158277 3.04923e-18)
(0.695532 -0.378274 1.27504e-18)
(0.85052 0.0375121 -7.33686e-17)
(0.794995 -0.00925477 1.61894e-17)
(0.857656 0.049873 -5.3572e-17)
(0.781726 0.00655748 2.411e-17)
(0.847143 0.0335606 -1.31612e-17)
(0.791595 0.0182391 -8.42318e-17)
(0.850952 0.0300998 5.54748e-17)
(0.7981 0.0253013 -1.11732e-17)
(0.848505 0.0294777 -2.07141e-16)
(0.795583 0.027396 -1.6809e-16)
(0.849531 0.0278946 1.63166e-17)
(0.805365 0.0301781 5.20979e-17)
(0.852356 0.0261155 6.4234e-18)
(0.825431 0.0253791 -7.64602e-17)
(0.836845 0.030535 8.07244e-18)
(0.806444 0.0178955 -7.89012e-17)
(0.824118 0.0361299 3.40332e-17)
(0.800191 -0.00674364 3.38686e-18)
(0.83913 0.154243 -1.66148e-17)
(0.698196 -0.358139 -2.40344e-18)
(0.809768 -0.0123876 -1.0522e-16)
(0.866081 0.0495783 -1.13998e-16)
(0.790357 -0.00226297 -1.11976e-17)
(0.847637 0.0381725 -6.59322e-17)
(0.804604 0.00697032 -5.41072e-17)
(0.849753 0.0320232 1.22315e-16)
(0.809838 0.0145018 2.88717e-16)
(0.856501 0.0357521 1.70328e-16)
(0.810228 0.0152755 4.19934e-17)
(0.855436 0.0374557 3.90629e-17)
(0.80588 0.0165156 1.30539e-16)
(0.851537 0.0377017 4.4972e-17)
(0.816146 0.0180115 -3.35497e-17)
(0.866192 0.0408129 -4.21443e-17)
(0.82489 0.0196741 5.07809e-19)
(0.854144 0.0456936 1.25088e-16)
(0.801233 0.0198677 -1.41051e-17)
(0.822986 0.0436593 -1.32391e-17)
(0.801602 -0.00423526 -3.10794e-17)
(0.834972 0.157472 5.92518e-20)
(0.693993 -0.373457 2.10195e-18)
(0.85475 0.0377395 2.97945e-16)
(0.805421 -0.00733421 -3.6298e-17)
(0.860389 0.0470508 -1.08805e-16)
(0.791364 0.00739808 -5.97416e-17)
(0.850834 0.0331856 -1.07168e-16)
(0.801986 0.0189451 -4.52318e-17)
(0.856721 0.0301746 -8.15919e-17)
(0.801973 0.0252713 -1.62674e-16)
(0.85115 0.0301348 3.8281e-17)
(0.801016 0.027925 2.65833e-17)
(0.84789 0.0296485 -1.77939e-16)
(0.798252 0.0283322 -1.82025e-16)
(0.847349 0.0278392 -3.58959e-18)
(0.808584 0.0306613 4.88269e-17)
(0.851124 0.0273488 1.01945e-17)
(0.826793 0.025104 -7.34103e-17)
(0.837367 0.032455 1.10649e-17)
(0.808122 0.0182056 -7.86894e-17)
(0.823739 0.0370725 2.79886e-17)
(0.802693 -0.0061113 2.65217e-18)
(0.837725 0.153713 -1.67647e-17)
(0.69466 -0.353623 -1.96895e-18)
(0.81354 -0.0117872 -3.26397e-16)
(0.872231 0.0484708 1.95955e-16)
(0.802976 0.000352603 -2.68588e-17)
(0.854553 0.0382834 -1.45741e-16)
(0.814599 0.0086595 2.32297e-17)
(0.855921 0.0322975 -1.44607e-17)
(0.820459 0.0154213 -8.60348e-17)
(0.858379 0.0349051 -1.13937e-16)
(0.812494 0.0158853 1.92468e-16)
(0.858302 0.0364333 1.95389e-16)
(0.811757 0.0161886 6.15347e-17)
(0.854109 0.0382163 2.96237e-17)
(0.807703 0.0177363 1.21654e-16)
(0.850004 0.0379421 5.51906e-17)
(0.815689 0.0180954 -2.346e-17)
(0.864874 0.041439 -3.95314e-17)
(0.82699 0.0200829 -1.13057e-17)
(0.853825 0.0455567 1.24978e-16)
(0.803209 0.0207745 -1.08349e-17)
(0.821552 0.044056 -1.17175e-17)
(0.803656 -0.00370448 -3.17165e-17)
(0.833423 0.156914 -1.45201e-18)
(0.693633 -0.368644 1.53256e-18)
(0.859784 0.0378423 5.14856e-17)
(0.814615 -0.0053417 -3.637e-16)
(0.865054 0.044617 1.89041e-16)
(0.806258 0.0083288 8.58742e-17)
(0.858626 0.0330194 2.21868e-17)
(0.813904 0.0194453 5.86517e-17)
(0.860767 0.0301343 -1.0407e-16)
(0.810902 0.0252822 -5.72135e-17)
(0.858616 0.0305203 -3.93368e-17)
(0.805357 0.0282183 -1.73381e-16)
(0.851349 0.0302949 1.11115e-17)
(0.805226 0.0291855 4.71822e-17)
(0.845436 0.029292 -1.55097e-16)
(0.801291 0.0292668 -1.82464e-16)
(0.845305 0.0283124 -1.83831e-17)
(0.810624 0.0307436 4.3903e-17)
(0.848935 0.0284539 1.36069e-17)
(0.828821 0.0250514 -7.09883e-17)
(0.838293 0.0339541 1.48284e-17)
(0.809492 0.0180333 -7.77708e-17)
(0.82263 0.0381999 2.50516e-17)
(0.804906 -0.00607745 2.64267e-18)
(0.835982 0.153359 -1.56204e-17)
(0.691455 -0.349089 8.43361e-19)
(0.817114 -0.0108772 2.8916e-17)
(0.876666 0.0476538 1.88049e-16)
(0.814928 0.00242794 -3.05821e-16)
(0.862164 0.0379578 1.58674e-16)
(0.825799 0.0100466 9.23791e-17)
(0.864377 0.0323986 -7.7518e-17)
(0.830826 0.0162692 -1.40785e-16)
(0.864809 0.0344727 -4.74264e-17)
(0.82494 0.0168061 -7.84135e-17)
(0.861443 0.0345297 -1.60824e-16)
(0.815072 0.0172578 1.23347e-16)
(0.85415 0.0350904 1.98713e-16)
(0.814582 0.0173041 7.31458e-17)
(0.853545 0.0377568 2.14923e-17)
(0.808983 0.0189616 1.06623e-16)
(0.847781 0.0367728 6.0425e-17)
(0.815751 0.0187305 -1.27284e-17)
(0.862151 0.0415988 -3.52752e-17)
(0.828217 0.0201479 -2.24014e-17)
(0.852731 0.0453258 1.21383e-16)
(0.805909 0.0211951 -8.44205e-18)
(0.820347 0.0446925 -9.61337e-18)
(0.805452 -0.00388164 -3.25065e-17)
(0.833074 0.156084 -3.58489e-18)
(0.698733 -0.355158 -1.38534e-18)
(0.857579 0.0379521 1.18316e-16)
(0.815944 -0.00339788 4.73859e-18)
(0.865865 0.0428123 1.99986e-16)
(0.819728 0.00965743 -3.94892e-16)
(0.864487 0.0327062 -1.77264e-16)
(0.824832 0.0200107 -1.10368e-16)
(0.868176 0.0301986 -4.31102e-17)
(0.825111 0.0257898 9.98499e-17)
(0.864891 0.0315189 -4.98334e-17)
(0.815087 0.027728 -6.0276e-17)
(0.857967 0.0296163 -2.44717e-17)
(0.812175 0.029898 -1.50156e-16)
(0.848735 0.0304775 -3.93591e-19)
(0.807099 0.0301309 6.03901e-17)
(0.844879 0.0298725 -1.34236e-16)
(0.803968 0.0292541 -1.72801e-16)
(0.845112 0.030084 -2.64845e-17)
(0.813034 0.0304363 3.71686e-17)
(0.848302 0.0304319 1.2935e-17)
(0.830561 0.0249073 -6.69209e-17)
(0.839255 0.0355659 1.94272e-17)
(0.810519 0.0183587 -7.75869e-17)
(0.822153 0.039475 2.22302e-17)
(0.806966 -0.00659086 8.73463e-19)
(0.836811 0.152051 -1.53926e-17)
(0.702317 -0.354129 9.74729e-19)
(0.813007 -0.0101703 2.13001e-16)
(0.869932 0.0465613 1.50767e-16)
(0.814582 0.00427515 -1.6523e-17)
(0.862405 0.0368778 3.27568e-16)
(0.828923 0.011015 -8.24232e-17)
(0.864042 0.0319084 -4.48353e-19)
(0.83057 0.0167948 1.84112e-16)
(0.864713 0.0328904 2.77615e-16)
(0.832139 0.0173627 -2.72602e-17)
(0.866633 0.0343834 -3.50639e-17)
(0.827888 0.0183747 -6.35893e-17)
(0.858928 0.0345322 -1.80752e-16)
(0.816114 0.018197 7.73246e-17)
(0.854348 0.0346051 1.92538e-16)
(0.815293 0.0195066 8.39468e-17)
(0.851201 0.0371909 1.35964e-17)
(0.81021 0.0205854 8.96778e-17)
(0.845463 0.0369375 6.30472e-17)
(0.815637 0.0191027 -2.27767e-18)
(0.858758 0.0405719 -2.77749e-17)
(0.828899 0.0203907 -3.3331e-17)
(0.851481 0.0453559 1.17529e-16)
(0.807638 0.0215584 -5.32438e-18)
(0.820058 0.0454411 -7.95446e-18)
(0.807739 -0.00458147 -2.85743e-17)
(0.826565 0.155353 -5.30008e-18)
(0.697004 -0.355336 -1.11872e-18)
(0.849808 0.0378243 -5.36504e-16)
(0.809641 -0.00194762 7.91616e-17)
(0.859328 0.0411711 1.41463e-16)
(0.82153 0.0113347 -4.88752e-17)
(0.859023 0.0319213 3.50682e-16)
(0.823872 0.0201912 3.58346e-16)
(0.861677 0.0296483 3.19136e-16)
(0.824154 0.0262379 6.88097e-17)
(0.867776 0.0315021 -3.7017e-17)
(0.827361 0.0281143 9.96932e-17)
(0.866094 0.0316989 -2.46111e-17)
(0.818425 0.0290911 -6.02177e-17)
(0.857153 0.0301212 -1.86708e-17)
(0.813816 0.030408 -1.44467e-16)
(0.8486 0.030586 -6.34291e-18)
(0.811216 0.0293988 6.95996e-17)
(0.844484 0.0302638 -1.17759e-16)
(0.805406 0.0292782 -1.67804e-16)
(0.843491 0.0305729 -3.20488e-17)
(0.814878 0.0297097 3.05877e-17)
(0.849588 0.0325746 1.1006e-17)
(0.831962 0.0248789 -6.69649e-17)
(0.841246 0.0367474 2.44254e-17)
(0.81116 0.0186789 -7.62073e-17)
(0.821787 0.0413527 2.02188e-17)
(0.810927 -0.00723061 -3.46547e-19)
(0.827973 0.15548 -1.33448e-17)
(0.694998 -0.349519 7.07883e-19)
(0.805736 -0.00947264 3.74416e-16)
(0.860578 0.0457096 -4.56443e-16)
(0.811203 0.00587352 -4.6327e-18)
(0.854458 0.0358274 1.62793e-16)
(0.823106 0.0117912 -1.36642e-16)
(0.85619 0.0312473 -1.9848e-16)
(0.825355 0.017291 -3.07915e-16)
(0.860371 0.0319561 -4.08777e-16)
(0.831056 0.0176144 -9.65689e-17)
(0.865286 0.0323416 2.60512e-16)
(0.833255 0.0189923 2.11043e-17)
(0.864736 0.0340557 -2.58958e-17)
(0.828944 0.0190934 -5.04605e-17)
(0.860122 0.0345047 -1.87014e-16)
(0.817641 0.0204643 3.7612e-17)
(0.851912 0.0345963 1.84587e-16)
(0.815455 0.0202987 9.2674e-17)
(0.850629 0.0364161 6.59228e-18)
(0.811248 0.0213504 7.87545e-17)
(0.844705 0.037804 6.07396e-17)
(0.815585 0.0198436 4.62737e-18)
(0.856918 0.0409335 -2.15657e-17)
(0.829119 0.020707 -4.00783e-17)
(0.852152 0.0452897 1.14859e-16)
(0.808698 0.021723 -1.20227e-18)
(0.819945 0.0463081 -6.16798e-18)
(0.810804 -0.00724533 -2.72123e-17)
(0.82687 0.157204 -8.41354e-18)
(0.692527 -0.35057 -8.44122e-19)
(0.840832 0.0375321 7.38443e-18)
(0.801642 -0.000771849 4.91635e-16)
(0.849188 0.0395588 -3.61063e-16)
(0.814616 0.0130688 -1.39905e-16)
(0.848026 0.0310674 6.17918e-17)
(0.818325 0.0205112 1.43788e-16)
(0.853289 0.0292821 9.7363e-17)
(0.821318 0.0263546 1.57113e-16)
(0.860524 0.0314207 3.56692e-16)
(0.824226 0.0280168 1.5607e-16)
(0.866737 0.0311476 -2.66236e-17)
(0.830001 0.0285255 9.3508e-17)
(0.865592 0.0316211 -1.03115e-17)
(0.820637 0.0298515 -6.02814e-17)
(0.856908 0.0302929 -1.58186e-17)
(0.816621 0.0293732 -1.30237e-16)
(0.848172 0.0307315 -1.31291e-17)
(0.812395 0.0297656 7.49413e-17)
(0.844588 0.0309233 -1.00063e-16)
(0.806569 0.0293855 -1.59535e-16)
(0.842276 0.0310572 -3.45122e-17)
(0.815606 0.0289566 2.69888e-17)
(0.849347 0.0334737 1.22269e-17)
(0.831645 0.0249528 -6.61278e-17)
(0.84301 0.0379027 2.89482e-17)
(0.811366 0.0188262 -7.70928e-17)
(0.821785 0.0437912 1.71551e-17)
(0.810271 -0.00916877 -2.2968e-19)
(0.828228 0.155492 -1.3756e-17)
(0.692761 -0.345004 5.6361e-19)
(0.798043 -0.00890337 -2.61105e-16)
(0.846453 0.0445967 -2.10548e-16)
(0.800699 0.00715909 4.74465e-16)
(0.842886 0.034091 -3.42956e-16)
(0.816356 0.0125194 -4.55067e-16)
(0.847317 0.0307903 -4.51928e-16)
(0.81914 0.0179887 -4.336e-16)
(0.852055 0.0310045 -3.14339e-16)
(0.824058 0.0174436 -3.11925e-16)
(0.859329 0.0312458 -4.59238e-16)
(0.830528 0.0192179 -1.92203e-16)
(0.863539 0.0324129 2.29835e-16)
(0.834277 0.0198278 4.66309e-17)
(0.865235 0.0335417 -1.64853e-17)
(0.82921 0.0200954 -3.91304e-17)
(0.859784 0.0345322 -1.87293e-16)
(0.818284 0.02101 1.03421e-17)
(0.852102 0.0345878 1.75361e-16)
(0.816025 0.0210639 9.98377e-17)
(0.848882 0.0356946 -6.70938e-18)
(0.812297 0.0217312 5.5362e-17)
(0.844172 0.0382224 5.67526e-17)
(0.815854 0.0201955 8.52056e-18)
(0.856604 0.0412216 -1.7362e-17)
(0.82914 0.0212214 -4.76355e-17)
(0.851609 0.0450158 1.06194e-16)
(0.809763 0.0218021 -2.50141e-18)
(0.820218 0.0481683 -4.79234e-18)
(0.810745 -0.00938388 -2.67668e-17)
(0.827701 0.156811 -7.42672e-18)
(0.691345 -0.346432 -6.61541e-19)
(0.836977 0.0370842 3.80689e-16)
(0.794602 0.00056029 -1.506e-16)
(0.83609 0.0379623 -2.79675e-16)
(0.803504 0.0146251 6.25969e-16)
(0.836356 0.0302978 3.08908e-16)
(0.810561 0.020971 1.21703e-16)
(0.841252 0.028895 1.58969e-16)
(0.811646 0.0264597 3.26501e-16)
(0.84955 0.0311675 2.38411e-16)
(0.81995 0.0276963 1.3993e-16)
(0.859761 0.0311676 3.44959e-16)
(0.824922 0.0289091 1.82563e-16)
(0.865426 0.0317006 -1.24891e-17)
(0.830701 0.0288915 9.24732e-17)
(0.865473 0.0315973 -8.72126e-19)
(0.823309 0.029992 -5.81386e-17)
(0.856505 0.0307082 -1.57622e-17)
(0.81795 0.0296158 -1.24167e-16)
(0.84768 0.0308769 -1.72424e-17)
(0.813906 0.0295608 8.39712e-17)
(0.846351 0.0316467 -7.73552e-17)
(0.80846 0.0292705 -1.42914e-16)
(0.841025 0.0316308 -3.72192e-17)
(0.815392 0.0286711 2.43192e-17)
(0.849788 0.033888 1.34154e-17)
(0.832317 0.0249417 -6.50631e-17)
(0.844912 0.0392671 3.74343e-17)
(0.811951 0.0189105 -7.09929e-17)
(0.822171 0.0460613 1.73308e-17)
(0.809488 -0.0111939 -3.27028e-19)
(0.827186 0.156376 -1.57926e-17)
(0.692049 -0.340917 4.52056e-19)
(0.795589 -0.00829393 -3.13824e-16)
(0.839674 0.042556 3.68807e-16)
(0.796045 0.00844753 -1.27571e-17)
(0.831548 0.033734 -4.18243e-16)
(0.807392 0.0132812 4.34739e-16)
(0.835426 0.0302485 3.8061e-16)
(0.808297 0.0184486 4.2675e-16)
(0.838041 0.0300285 1.40311e-16)
(0.814675 0.0177192 -2.60618e-16)
(0.850638 0.0309803 -2.90076e-16)
(0.823378 0.0189196 -2.79885e-16)
(0.858121 0.0313796 -4.36105e-16)
(0.830854 0.0198658 -2.30144e-16)
(0.8631 0.032519 1.99672e-16)
(0.834433 0.0205956 6.17964e-17)
(0.865229 0.0331059 -9.20022e-18)
(0.830298 0.0205874 -3.02989e-17)
(0.859243 0.034251 -1.83314e-16)
(0.819446 0.0216293 -1.23886e-17)
(0.851589 0.0344938 1.64332e-16)
(0.816915 0.0222473 1.02455e-16)
(0.846826 0.0355171 -5.96516e-18)
(0.812976 0.0220966 3.85978e-17)
(0.843774 0.0384878 5.19895e-17)
(0.815496 0.0207562 1.19179e-17)
(0.855367 0.0415431 -1.46971e-17)
(0.829749 0.0216504 -5.28588e-17)
(0.851837 0.0449961 1.03121e-16)
(0.810773 0.0214921 -3.52851e-18)
(0.821596 0.0499583 -5.67502e-18)
(0.810534 -0.0117139 -2.52995e-17)
(0.824662 0.15901 -9.10352e-18)
(0.691478 -0.342312 -5.61785e-18)
(0.832888 0.036358 2.89231e-17)
(0.788892 0.00253527 -3.92448e-16)
(0.828348 0.0362877 3.33677e-16)
(0.795253 0.0156993 9.09036e-17)
(0.827927 0.0299585 -7.96619e-16)
(0.803157 0.0215041 -6.01626e-16)
(0.830243 0.0286819 -4.1375e-16)
(0.804371 0.0267434 -4.50473e-16)
(0.838734 0.0309854 -2.13713e-16)
(0.810068 0.0273389 2.11634e-16)
(0.84844 0.0307427 2.40481e-16)
(0.819666 0.0282305 1.20228e-16)
(0.859406 0.0304265 2.93688e-16)
(0.825441 0.0288877 1.80204e-16)
(0.86409 0.0317209 2.47107e-18)
(0.832217 0.0295357 9.25569e-17)
(0.864162 0.0318786 5.93055e-18)
(0.8255 0.0302022 -5.69887e-17)
(0.856205 0.0309878 -1.93304e-17)
(0.81929 0.0298692 -1.20601e-16)
(0.847025 0.0313013 -1.84033e-17)
(0.815259 0.0296441 8.65822e-17)
(0.846095 0.0319435 -6.61833e-17)
(0.810061 0.0291615 -1.33724e-16)
(0.840995 0.0322122 -3.40315e-17)
(0.815508 0.0283692 2.27376e-17)
(0.849463 0.0346324 1.48294e-17)
(0.831987 0.0247901 -6.79036e-17)
(0.845791 0.0402701 4.03624e-17)
(0.811988 0.0190366 -7.01339e-17)
(0.823392 0.0481178 1.51739e-17)
(0.810641 -0.014222 1.74842e-18)
(0.823892 0.157745 -1.56472e-17)
(0.692086 -0.336897 3.85369e-18)
(0.792734 -0.00782857 -5.68635e-17)
(0.833904 0.039926 1.18888e-16)
(0.792408 0.00948382 -4.7232e-16)
(0.820233 0.0331635 2.79816e-16)
(0.800056 0.0141082 6.45924e-16)
(0.825897 0.0296835 3.80347e-16)
(0.800828 0.018946 2.74667e-16)
(0.829214 0.0294378 3.37427e-16)
(0.806145 0.0181784 5.53935e-16)
(0.837339 0.030536 3.34244e-16)
(0.813179 0.0188371 -1.6216e-16)
(0.849214 0.0306021 -2.70774e-16)
(0.823255 0.0206918 -2.46811e-16)
(0.856475 0.0313039 -4.2016e-16)
(0.830627 0.0213702 -2.21262e-16)
(0.862561 0.0321861 1.7963e-16)
(0.83536 0.0210703 7.45335e-17)
(0.864474 0.032807 -2.7033e-18)
(0.831312 0.0214694 -2.32788e-17)
(0.858474 0.0339613 -1.77354e-16)
(0.820788 0.0223266 -2.96899e-17)
(0.850652 0.0345269 1.54849e-16)
(0.817469 0.0232431 1.06391e-16)
(0.84625 0.035472 -8.46517e-18)
(0.813778 0.0223012 2.82512e-17)
(0.842656 0.0384671 4.40886e-17)
(0.815499 0.0215737 1.41786e-17)
(0.854717 0.0415617 -1.05117e-17)
(0.830219 0.0222098 -5.51911e-17)
(0.852031 0.045347 1.00995e-16)
(0.810866 0.0216153 -1.84135e-18)
(0.822095 0.0522848 -3.5944e-18)
(0.809921 -0.0144529 -2.93136e-17)
(0.838897 0.144991 -1.00435e-17)
(0.691122 -0.339123 -3.43939e-18)
(0.829118 0.0357228 9.44294e-17)
(0.786736 0.00485057 -2.75057e-17)
(0.825679 0.0349311 1.89115e-16)
(0.790147 0.0167851 -6.03454e-16)
(0.822767 0.0299309 -1.60082e-16)
(0.798088 0.0219882 2.46107e-16)
(0.823703 0.0286176 1.50312e-16)
(0.800891 0.0271022 1.13971e-17)
(0.829998 0.0305373 -1.64939e-16)
(0.802503 0.0273142 -4.34049e-16)
(0.838045 0.0309697 -3.01343e-16)
(0.809848 0.0279224 1.4956e-16)
(0.846794 0.0304707 2.36493e-16)
(0.820459 0.0283666 9.18645e-17)
(0.856917 0.030395 2.68563e-16)
(0.828095 0.028427 1.44046e-16)
(0.862114 0.0318995 8.43823e-18)
(0.833354 0.0297956 9.14161e-17)
(0.863564 0.032002 1.13465e-17)
(0.827393 0.0302343 -5.39363e-17)
(0.855591 0.0312519 -2.24444e-17)
(0.820471 0.0298724 -1.16272e-16)
(0.846761 0.0315907 -1.95268e-17)
(0.816548 0.0293801 9.17284e-17)
(0.8455 0.0323709 -5.44063e-17)
(0.811348 0.029315 -1.2786e-16)
(0.840928 0.0333074 -2.87967e-17)
(0.81583 0.0278873 2.12613e-17)
(0.849315 0.0353039 1.56744e-17)
(0.832289 0.0246403 -6.77937e-17)
(0.846636 0.0410472 4.29493e-17)
(0.811571 0.0194052 -6.83264e-17)
(0.825068 0.0506247 1.16658e-17)
(0.795454 -0.00628996 3.047e-18)
(0.838381 0.145597 -1.55828e-17)
(0.691814 -0.334274 7.50697e-18)
(0.791543 -0.00744296 3.61824e-17)
(0.829487 0.0374645 1.32113e-16)
(0.789488 0.0102469 -1.59819e-17)
(0.814753 0.0327052 3.3716e-16)
(0.799077 0.0149935 -4.41175e-16)
(0.822023 0.0294356 -4.13352e-16)
(0.800848 0.0195207 -2.34114e-16)
(0.827514 0.0291916 -1.76594e-16)
(0.802538 0.0191729 -8.53406e-17)
(0.830504 0.0304558 1.50999e-16)
(0.805801 0.0188168 5.10047e-16)
(0.83585 0.0304796 4.00487e-16)
(0.812437 0.0203303 -9.29514e-17)
(0.847525 0.030335 -2.4924e-16)
(0.823396 0.0219714 -2.1011e-16)
(0.855426 0.0314689 -3.89103e-16)
(0.830076 0.0220153 -2.24783e-16)
(0.861701 0.0320892 1.59105e-16)
(0.835852 0.0215253 8.23794e-17)
(0.863667 0.0327219 3.9264e-18)
(0.83218 0.0221732 -1.85963e-17)
(0.857961 0.0339887 -1.63136e-16)
(0.821834 0.0228674 -4.81687e-17)
(0.849349 0.0347064 1.34491e-16)
(0.817981 0.0237561 1.08521e-16)
(0.845739 0.0354399 -8.45658e-18)
(0.814445 0.0225518 1.91439e-17)
(0.842428 0.037979 3.94708e-17)
(0.815275 0.0219797 1.64379e-17)
(0.853575 0.0416676 -9.21131e-18)
(0.83047 0.0225053 -6.30792e-17)
(0.852323 0.0455106 9.77511e-17)
(0.81058 0.0217306 5.54512e-19)
(0.829053 0.0513109 -3.87045e-19)
(0.798661 -0.00489277 -2.50269e-17)
(0.832734 0.148875 -1.11052e-17)
(0.691154 -0.335868 -2.00638e-18)
(0.830366 0.0350853 1.38697e-16)
(0.790882 0.00636665 -9.09056e-18)
(0.826537 0.033903 6.48751e-17)
(0.788888 0.0177633 -5.43807e-17)
(0.822568 0.0300183 5.83461e-16)
(0.7988 0.0225913 3.1427e-16)
(0.826329 0.0290427 -8.78695e-17)
(0.806773 0.0276457 -5.24592e-17)
(0.829523 0.030274 1.30325e-16)
(0.800576 0.027953 9.51444e-17)
(0.830097 0.0309718 -7.57338e-17)
(0.803227 0.0278777 -3.80514e-16)
(0.836429 0.0305273 -3.34506e-16)
(0.810674 0.0280506 9.93464e-17)
(0.845362 0.0304495 2.25295e-16)
(0.82153 0.0285571 6.77353e-17)
(0.85533 0.0302992 2.25829e-16)
(0.828865 0.0287702 1.13441e-16)
(0.860733 0.0321778 1.58211e-17)
(0.834418 0.029983 9.19132e-17)
(0.863102 0.032083 1.49334e-17)
(0.828571 0.030011 -4.96101e-17)
(0.856183 0.0312486 -3.33264e-17)
(0.821369 0.0297871 -1.12235e-16)
(0.847708 0.0315658 -1.16873e-17)
(0.817266 0.0293804 9.76765e-17)
(0.844783 0.0327844 -4.73976e-17)
(0.812009 0.0295049 -1.22386e-16)
(0.840179 0.0337523 -3.24691e-17)
(0.816058 0.0277107 1.67975e-17)
(0.848916 0.0358681 1.94815e-17)
(0.832334 0.0246138 -6.49799e-17)
(0.847459 0.041525 4.48993e-17)
(0.811894 0.0194225 -6.84603e-17)
(0.82806 0.0474022 8.46553e-18)
(0.801385 -0.00782111 -1.14532e-18)
(0.83289 0.149744 -1.61365e-17)
(0.691921 -0.331062 1.51798e-18)
(0.798881 -0.00668954 -1.57604e-16)
(0.837236 0.0368568 6.51184e-17)
(0.801468 0.0112988 3.32039e-17)
(0.820711 0.0325371 1.12504e-16)
(0.807018 0.0160441 -7.35553e-17)
(0.827729 0.0296473 1.63426e-16)
(0.813549 0.0203035 2.02518e-16)
(0.838708 0.0293761 1.09156e-16)
(0.811745 0.020267 1.61652e-17)
(0.832362 0.0300409 -1.41144e-16)
(0.804064 0.0209895 -1.25106e-16)
(0.828745 0.0299843 7.0889e-17)
(0.806204 0.0200812 4.41877e-16)
(0.834899 0.0304061 4.18696e-16)
(0.812497 0.0214968 -4.23704e-17)
(0.845427 0.0301252 -2.26039e-16)
(0.824188 0.022129 -1.84926e-16)
(0.854435 0.0310305 -3.56685e-16)
(0.830926 0.0221254 -2.14856e-16)
(0.861062 0.0323912 1.34753e-16)
(0.835793 0.0218486 8.91868e-17)
(0.863399 0.0328866 8.95202e-18)
(0.832145 0.0225614 -1.31997e-17)
(0.857673 0.0341356 -1.59215e-16)
(0.822372 0.0234325 -6.20408e-17)
(0.848754 0.0346752 1.24199e-16)
(0.818612 0.0242929 1.11326e-16)
(0.845834 0.0354729 -7.80643e-18)
(0.814608 0.0234851 4.74512e-18)
(0.842078 0.038179 3.38573e-17)
(0.815497 0.0222193 1.77733e-17)
(0.85296 0.041792 -5.34871e-18)
(0.830532 0.0228893 -6.72912e-17)
(0.853033 0.0456591 9.49321e-17)
(0.810511 0.0225248 -3.24306e-18)
(0.826533 0.0523383 -4.36583e-18)
(0.804026 -0.00941203 -1.90424e-17)
(0.827467 0.15164 -1.21227e-17)
(0.691318 -0.332345 3.15852e-18)
(0.837497 0.0343659 3.25928e-17)
(0.801073 0.00727153 -1.48976e-16)
(0.832367 0.0329076 8.57171e-17)
(0.796474 0.0189294 1.14005e-16)
(0.832303 0.0303772 1.00109e-16)
(0.810377 0.0234343 -3.57501e-16)
(0.841306 0.0297566 -3.7097e-16)
(0.822354 0.0283229 -1.93362e-16)
(0.839457 0.0306328 -2.2742e-16)
(0.810302 0.0278028 -1.5915e-16)
(0.830281 0.0292979 8.28653e-17)
(0.804201 0.0274609 9.79977e-17)
(0.828785 0.0304872 -2.74382e-17)
(0.803189 0.0280407 -3.3025e-16)
(0.834948 0.0304962 -3.38549e-16)
(0.812061 0.0277255 6.19288e-17)
(0.84376 0.0305951 2.15833e-16)
(0.821677 0.0287839 5.81542e-17)
(0.853925 0.0306526 1.98294e-16)
(0.829124 0.0288622 1.00189e-16)
(0.861155 0.0318254 2.75722e-17)
(0.834921 0.0301483 9.19752e-17)
(0.862922 0.0320734 2.00754e-17)
(0.829668 0.0301865 -4.56531e-17)
(0.856006 0.031271 -3.36799e-17)
(0.822143 0.0297483 -1.11296e-16)
(0.847412 0.0318637 -1.24512e-17)
(0.817907 0.0292759 9.82442e-17)
(0.844632 0.0331801 -3.91212e-17)
(0.812926 0.0288976 -1.08693e-16)
(0.839881 0.0341187 -3.02449e-17)
(0.81575 0.0276693 1.82856e-17)
(0.848942 0.0366856 2.01751e-17)
(0.831819 0.0247608 -6.5039e-17)
(0.848499 0.0419239 4.42808e-17)
(0.811764 0.0201343 -5.74932e-17)
(0.826156 0.0494313 1.20518e-17)
(0.802861 -0.0106853 -4.70846e-18)
(0.845909 0.137689 -2.07803e-17)
(0.691781 -0.32874 -7.74522e-18)
(0.810541 -0.00579237 -2.48749e-16)
(0.846968 0.036386 -2.82015e-17)
(0.811249 0.0123906 -2.03509e-16)
(0.827901 0.0325527 5.10568e-18)
(0.820161 0.0170873 -2.35714e-16)
(0.840564 0.0299638 -1.08875e-16)
(0.830843 0.0210433 -1.41292e-16)
(0.850334 0.0294503 -1.18387e-16)
(0.825185 0.0211965 7.5315e-18)
(0.843735 0.0311797 1.0334e-16)
(0.815547 0.0223572 6.00134e-17)
(0.832586 0.0307482 -1.09863e-16)
(0.80434 0.0216397 -1.30685e-16)
(0.829091 0.030163 2.31441e-17)
(0.805897 0.0218471 3.54177e-16)
(0.833495 0.030276 4.14709e-16)
(0.812163 0.0221839 -6.70321e-18)
(0.844162 0.0300525 -2.08263e-16)
(0.82373 0.0228943 -1.62241e-16)
(0.853485 0.0309134 -3.17825e-16)
(0.8312 0.0230417 -2.04349e-16)
(0.859462 0.0323948 1.19464e-16)
(0.836709 0.0222146 9.58099e-17)
(0.862955 0.0328487 1.30965e-17)
(0.832919 0.0229723 -1.05284e-17)
(0.857262 0.0342154 -1.54767e-16)
(0.823067 0.0239024 -7.4289e-17)
(0.848558 0.034804 1.13441e-16)
(0.818826 0.0245115 1.15987e-16)
(0.845874 0.035533 -6.06685e-18)
(0.814469 0.0237749 -1.84665e-18)
(0.842307 0.0383494 3.08301e-17)
(0.815278 0.0225586 1.8969e-17)
(0.852678 0.041613 -1.89805e-18)
(0.830171 0.0232828 -7.08259e-17)
(0.853612 0.0457915 9.8967e-17)
(0.810098 0.023095 -2.01227e-18)
(0.826286 0.0537228 -3.03143e-18)
(0.791315 -0.00150599 -1.89119e-17)
(0.840523 0.141231 -9.33214e-18)
(0.691076 -0.329975 5.37013e-18)
(0.845116 0.0335317 6.62895e-17)
(0.815031 0.00856764 -2.35857e-16)
(0.843436 0.0327812 -7.9593e-17)
(0.811223 0.0201789 -3.24934e-16)
(0.847047 0.0308686 -2.6041e-16)
(0.824848 0.0241708 -2.01829e-16)
(0.854323 0.0301514 1.77251e-16)
(0.830937 0.0285877 3.77153e-16)
(0.848524 0.0301244 2.05596e-16)
(0.825842 0.0283351 -4.30499e-17)
(0.842053 0.0299557 -2.01979e-16)
(0.81299 0.0278234 -1.89611e-16)