/*--------------------------------*- C++ -*----------------------------------*\
| =========                 |                                                 |
| \\      /  F ield         | OpenFOAM: The Open Source CFD Toolbox           |
|  \\    /   O peration     | Version:  2206                                  |
|   \\  /    A nd           | Website:  www.openfoam.com                      |
|    \\/     M anipulation  |                                                 |
\*---------------------------------------------------------------------------*/
FoamFile
{
    version     2.0;
    format      ascii;
    arch        "LSB;label=32;scalar=64";
    class       volScalarField;
    location    "190";
    object      alphat;
}
// * * * * * * * * * * * * * * * * * * * * * * * * * * * * * * * * * * * * * //

dimensions      [1 -1 -1 0 0 0 0];

internalField   nonuniform List<scalar> 
93840
(
9.55241e-07
5.36133e-11
9.78053e-07
8.37893e-08
4.73939e-11
7.89264e-07
2.52038e-09
4.80938e-08
5.04253e-10
4.92375e-07
6.2314e-08
1.35941e-08
5.41245e-08
3.50476e-09
3.74657e-07
2.32894e-08
3.28555e-08
1.32209e-08
6.58082e-08
4.67215e-09
2.91495e-07
3.74766e-08
2.24771e-08
3.64896e-08
8.09062e-09
4.38525e-08
5.72227e-09
3.60203e-07
2.60807e-08
3.6676e-08
2.01403e-08
4.24342e-08
1.19902e-08
4.75844e-08
4.84392e-09
3.20422e-07
3.68543e-08
2.4871e-08
3.67881e-08
2.39411e-08
3.45136e-08
1.51642e-08
3.50466e-08
4.96568e-09
3.74153e-07
2.76035e-08
3.95302e-08
2.39378e-08
3.05918e-08
2.34628e-08
3.06229e-08
1.96979e-08
3.32409e-08
4.63442e-09
3.44952e-07
3.60238e-08
2.72844e-08
3.83587e-08
2.4703e-08
3.10714e-08
2.25785e-08
2.47167e-08
2.07056e-08
3.22231e-08
5.3384e-09
3.85288e-07
2.69532e-08
3.72652e-08
2.55172e-08
3.52307e-08
2.58749e-08
2.82611e-08
2.39517e-08
2.78964e-08
2.08745e-08
2.9471e-08
4.90294e-09
3.46303e-07
3.46605e-08
2.69835e-08
3.90042e-08
2.87516e-08
3.39643e-08
2.59127e-08
2.9387e-08
2.19163e-08
2.5601e-08
2.12247e-08
3.02347e-08
5.06208e-09
3.74532e-07
2.64026e-08
3.5167e-08
2.59144e-08
3.59095e-08
2.71768e-08
3.04326e-08
2.65651e-08
2.93793e-08
2.36992e-08
2.75116e-08
2.17029e-08
3.12101e-08
4.91958e-09
3.59265e-07
3.36179e-08
2.6238e-08
3.71069e-08
2.91254e-08
3.43164e-08
2.74397e-08
3.08951e-08
2.54862e-08
2.90563e-08
2.25094e-08
2.51678e-08
2.06625e-08
3.09952e-08
5.15695e-09
3.75209e-07
2.63209e-08
3.36591e-08
2.63335e-08
3.47729e-08
2.82493e-08
3.18425e-08
2.72479e-08
3.17502e-08
2.57131e-08
2.9807e-08
2.31746e-08
2.76359e-08
2.1493e-08
2.98418e-08
4.92161e-09
3.59386e-07
3.37529e-08
2.57515e-08
3.63651e-08
2.82787e-08
3.47659e-08
2.81184e-08
3.11345e-08
2.8097e-08
3.12653e-08
2.58283e-08
2.90225e-08
2.27577e-08
2.53175e-08
2.11955e-08
3.07953e-08
5.1274e-09
3.70654e-07
2.62222e-08
3.3694e-08
2.67835e-08
3.44502e-08
2.87125e-08
3.20591e-08
2.65695e-08
3.30258e-08
2.57318e-08
3.18086e-08
2.53641e-08
2.79064e-08
2.32014e-08
2.76992e-08
2.18943e-08
3.08983e-08
5.10525e-09
3.59236e-07
3.46551e-08
2.64995e-08
3.63143e-08
2.75968e-08
3.49663e-08
2.76603e-08
3.14579e-08
2.87127e-08
3.17863e-08
2.79425e-08
3.05297e-08
2.55451e-08
2.89714e-08
2.30606e-08
2.49543e-08
2.08349e-08
3.05931e-08
5.30513e-09
3.677e-07
2.67317e-08
3.38415e-08
2.72497e-08
3.4695e-08
2.90151e-08
3.19875e-08
2.65617e-08
3.21584e-08
2.66288e-08
3.22041e-08
2.49739e-08
3.22884e-08
2.53143e-08
2.87093e-08
2.34924e-08
2.76042e-08
2.21485e-08
2.99877e-08
5.20158e-09
3.57374e-07
3.46567e-08
2.7322e-08
3.61927e-08
2.77575e-08
3.42224e-08
2.74955e-08
3.17237e-08
2.76182e-08
3.183e-08
2.90496e-08
3.25058e-08
2.75529e-08
3.06731e-08
2.57989e-08
2.85985e-08
2.34864e-08
2.49446e-08
2.11953e-08
3.07109e-08
5.29419e-09
3.67057e-07
2.70648e-08
3.39852e-08
2.78052e-08
3.44313e-08
2.86866e-08
3.22987e-08
2.66971e-08
3.16463e-08
2.69737e-08
3.18309e-08
2.54815e-08
3.29987e-08
2.58546e-08
3.16827e-08
2.58354e-08
2.83387e-08
2.31635e-08
2.78781e-08
2.16834e-08
3.06212e-08
5.22471e-09
3.59812e-07
3.428e-08
2.76576e-08
3.65705e-08
2.85495e-08
3.39e-08
2.86137e-08
3.1933e-08
2.71632e-08
3.18846e-08
2.8079e-08
3.20467e-08
2.77003e-08
3.08202e-08
2.7613e-08
3.05748e-08
2.67253e-08
2.89282e-08
2.33895e-08
2.49306e-08
2.0893e-08
3.06469e-08
5.48066e-09
3.70133e-07
2.69552e-08
3.42758e-08
2.86037e-08
3.48724e-08
2.88849e-08
3.30085e-08
2.68558e-08
3.21649e-08
2.73758e-08
3.23827e-08
2.71396e-08
3.18772e-08
2.59296e-08
3.27011e-08
2.58475e-08
3.1382e-08
2.50302e-08
2.86025e-08
2.36099e-08
2.78004e-08
2.12435e-08
3.01544e-08
5.34541e-09
3.68197e-07
3.48934e-08
2.66531e-08
3.74905e-08
2.91075e-08
3.44933e-08
2.93564e-08
3.19517e-08
2.77554e-08
3.23733e-08
2.80747e-08
3.21007e-08
2.78902e-08
3.26056e-08
2.86602e-08
3.07107e-08
2.84837e-08
3.01563e-08
2.65249e-08
2.85986e-08
2.30399e-08
2.51216e-08
2.0904e-08
2.98455e-08
5.4196e-09
3.72765e-07
2.65935e-08
3.44105e-08
2.94428e-08
3.52176e-08
2.89688e-08
3.33041e-08
2.73227e-08
3.22512e-08
2.79584e-08
3.22661e-08
2.67394e-08
3.2155e-08
2.69418e-08
3.19429e-08
2.67144e-08
3.06658e-08
2.56956e-08
3.18352e-08
2.53388e-08
2.90454e-08
2.37403e-08
2.81767e-08
2.1259e-08
2.99128e-08
5.14253e-09
3.39536e-07
3.45354e-08
2.75498e-08
3.64464e-08
2.93607e-08
3.47654e-08
3.00068e-08
3.18093e-08
2.82573e-08
3.16595e-08
2.78767e-08
3.26511e-08
2.73729e-08
3.2513e-08
2.81681e-08
3.1625e-08
2.93127e-08
3.05094e-08
2.867e-08
3.03316e-08
2.62059e-08
2.86028e-08
2.35536e-08
2.53715e-08
2.09925e-08
3.04702e-08
5.74548e-09
3.6632e-07
2.71051e-08
3.33827e-08
2.93121e-08
3.58771e-08
2.91292e-08
3.36219e-08
2.77513e-08
3.18544e-08
2.78968e-08
3.31762e-08
2.77329e-08
3.29898e-08
2.64874e-08
3.23858e-08
2.74277e-08
3.13758e-08
2.67381e-08
3.18151e-08
2.66612e-08
3.09686e-08
2.54906e-08
2.90458e-08
2.35714e-08
2.73692e-08
2.14075e-08
3.04081e-08
5.79807e-09
3.52653e-07
3.34724e-08
2.74756e-08
3.59691e-08
2.96992e-08
3.41449e-08
3.00142e-08
3.18922e-08
2.77676e-08
3.22116e-08
2.77682e-08
3.24977e-08
2.79271e-08
3.28132e-08
2.83415e-08
3.1943e-08
2.87504e-08
3.14466e-08
2.87328e-08
3.0237e-08
2.81619e-08
3.05218e-08
2.6321e-08
2.85142e-08
2.32461e-08
2.52498e-08
2.08676e-08
3.03107e-08
5.66267e-09
3.60645e-07
2.62215e-08
3.27025e-08
2.83705e-08
3.5354e-08
2.88933e-08
3.38478e-08
2.82654e-08
3.24922e-08
2.74231e-08
3.20742e-08
2.80158e-08
3.35855e-08
2.75955e-08
3.27851e-08
2.7101e-08
3.15012e-08
2.7382e-08
3.13251e-08
2.61193e-08
3.04141e-08
2.70488e-08
3.03239e-08
2.60201e-08
2.8482e-08
2.33934e-08
2.73085e-08
2.10912e-08
3.04589e-08
5.86022e-09
3.51905e-07
3.29031e-08
2.69098e-08
3.61123e-08
3.0137e-08
3.39937e-08
3.00445e-08
3.17598e-08
2.76359e-08
3.1978e-08
2.87072e-08
3.26474e-08
2.7907e-08
3.2349e-08
2.83798e-08
3.2232e-08
2.86727e-08
3.12642e-08
2.83886e-08
3.10553e-08
2.93041e-08
3.02661e-08
2.81824e-08
2.99602e-08
2.55739e-08
2.8284e-08
2.32258e-08
2.55402e-08
2.09258e-08
2.96812e-08
5.96879e-09
3.56488e-07
2.60013e-08
3.2193e-08
2.80673e-08
3.39675e-08
2.85171e-08
3.33964e-08
2.8265e-08
3.09796e-08
2.79057e-08
3.0972e-08
2.83538e-08
3.21463e-08
2.85792e-08
3.28367e-08
2.78724e-08
3.21949e-08
2.78572e-08
3.08479e-08
2.72458e-08
3.05419e-08
2.66315e-08
2.95364e-08
2.73539e-08
3.01403e-08
2.58455e-08
2.89123e-08
2.30899e-08
2.75196e-08
2.14719e-08
3.00397e-08
5.88475e-09
3.499e-07
3.24082e-08
2.62452e-08
3.57465e-08
2.94131e-08
3.39401e-08
2.92883e-08
3.1489e-08
2.81391e-08
3.11903e-08
2.77265e-08
3.12404e-08
2.80153e-08
3.21082e-08
2.86566e-08
3.20416e-08
2.86989e-08
3.19261e-08
2.89194e-08
3.11845e-08
2.82688e-08
3.05737e-08
2.85803e-08
2.9837e-08
2.75996e-08
2.99164e-08
2.51419e-08
2.86341e-08
2.29771e-08
2.56283e-08
2.06892e-08
3.04859e-08
6.07159e-09
3.53699e-07
2.57129e-08
3.21108e-08
2.7864e-08
3.29969e-08
2.88509e-08
3.24266e-08
2.85381e-08
3.06171e-08
2.75301e-08
3.07279e-08
2.80731e-08
3.14105e-08
2.76829e-08
3.15776e-08
2.83381e-08
3.21685e-08
2.77921e-08
3.14211e-08
2.74441e-08
3.04494e-08
2.7351e-08
3.02512e-08
2.73241e-08
3.00515e-08
2.67584e-08
3.08025e-08
2.55656e-08
2.91298e-08
2.30752e-08
2.74357e-08
2.13026e-08
3.03416e-08
6.34573e-09
3.5037e-07
3.20203e-08
2.58534e-08
3.49336e-08
2.89395e-08
3.38661e-08
2.91323e-08
3.12415e-08
2.80975e-08
3.08647e-08
2.74825e-08
3.03931e-08
2.76949e-08
3.15826e-08
2.8206e-08
3.24227e-08
2.82331e-08
3.17759e-08
2.84228e-08
3.17174e-08
2.84933e-08
3.06938e-08
2.80081e-08
3.02388e-08
2.80879e-08
3.00632e-08
2.70578e-08
3.01194e-08
2.56159e-08
2.85802e-08
2.27072e-08
2.55488e-08
2.0764e-08
2.965e-08
5.78467e-09
3.50422e-07
2.55159e-08
3.20302e-08
2.77177e-08
3.24501e-08
2.92382e-08
3.18188e-08
2.85013e-08
3.07611e-08
2.74363e-08
3.02857e-08
2.73458e-08
3.09442e-08
2.77611e-08
3.20896e-08
2.83218e-08
3.13478e-08
2.79249e-08
3.22378e-08
2.77427e-08
3.13375e-08
2.77305e-08
3.06008e-08
2.75502e-08
2.94764e-08
2.72734e-08
3.0038e-08
2.61674e-08
2.99809e-08
2.63354e-08
2.87125e-08
2.26497e-08
2.73065e-08
2.10898e-08
3.16776e-08
5.67468e-09
3.48289e-07
3.23632e-08
2.62634e-08
3.44467e-08
2.84951e-08
3.36483e-08
2.883e-08
3.16359e-08
2.81524e-08
3.07496e-08
2.75835e-08
3.08342e-08
2.69525e-08
3.0594e-08
2.76648e-08
3.15659e-08
2.82041e-08
3.25486e-08
2.77023e-08
3.21729e-08
2.82229e-08
3.10066e-08
2.85688e-08
3.09071e-08
2.84728e-08
2.96898e-08
2.76486e-08
3.08278e-08
2.73414e-08
2.98091e-08
2.47602e-08
2.85776e-08
2.27283e-08
2.57402e-08
2.06684e-08
3.24979e-08
5.90092e-09
3.52051e-07
2.55656e-08
3.2208e-08
2.77946e-08
3.23897e-08
2.9432e-08
3.19539e-08
2.9155e-08
3.15111e-08
2.8442e-08
3.05485e-08
2.68146e-08
3.02962e-08
2.68047e-08
3.1083e-08
2.7709e-08
3.16436e-08
2.81763e-08
3.20581e-08
2.77337e-08
3.21065e-08
2.757e-08
3.11391e-08
2.73489e-08
2.98383e-08
2.7306e-08
2.92146e-08
2.69681e-08
3.03838e-08
2.72151e-08
2.96851e-08
2.54676e-08
2.85716e-08
2.23803e-08
2.73567e-08
2.06214e-08
3.19046e-08
5.96031e-09
3.45241e-07
3.27896e-08
2.61201e-08
3.52439e-08
2.84716e-08
3.43432e-08
2.9776e-08
3.22632e-08
2.84165e-08
3.1721e-08
2.70191e-08
3.06481e-08
2.6521e-08
3.08303e-08
2.65961e-08
3.07441e-08
2.76772e-08
3.08284e-08
2.75385e-08
3.25994e-08
2.81542e-08
3.19061e-08
2.80112e-08
3.09916e-08
2.88223e-08
3.00688e-08
2.85999e-08
2.93336e-08
2.75291e-08
3.02966e-08
2.74405e-08
2.99397e-08
2.58466e-08
2.92116e-08
2.22043e-08
2.58984e-08
2.0905e-08
3.19455e-08
6.49314e-09
3.47495e-07
2.60416e-08
3.29289e-08
2.90881e-08
3.25759e-08
3.02593e-08
3.25547e-08
2.99586e-08
3.1876e-08
2.98231e-08
3.08342e-08
2.79654e-08
2.9961e-08
2.69473e-08
3.03174e-08
2.71822e-08
3.14861e-08
2.79913e-08
3.17222e-08
2.75097e-08
3.2391e-08
2.71564e-08
3.15365e-08
2.794e-08
3.09129e-08
2.75405e-08
2.95721e-08
2.71551e-08
2.96673e-08
2.70349e-08
2.98754e-08
2.69999e-08
2.93768e-08
2.49441e-08
2.92203e-08
2.23947e-08
2.7186e-08
2.09696e-08
3.08509e-08
5.85182e-09
3.40393e-07
3.3502e-08
2.85003e-08
3.49337e-08
2.86962e-08
3.55218e-08
3.06093e-08
3.30094e-08
2.87437e-08
3.22002e-08
2.75796e-08
3.19727e-08
2.66649e-08
3.10693e-08
2.62188e-08
3.11246e-08
2.71843e-08
3.00485e-08
2.71668e-08
3.13453e-08
2.82655e-08
3.25431e-08
2.83613e-08
3.15591e-08
2.82941e-08
3.07855e-08
2.86129e-08
2.99053e-08
2.77725e-08
3.00438e-08
2.73957e-08
3.01273e-08
2.70631e-08
2.95055e-08
2.48514e-08
2.98386e-08
2.22685e-08
2.63974e-08
2.1037e-08
3.25493e-08
5.83341e-09
3.45303e-07
2.71468e-08
3.17902e-08
2.91355e-08
3.35515e-08
3.12514e-08
3.28758e-08
3.09211e-08
3.18234e-08
2.9678e-08
3.10311e-08
2.82728e-08
3.12286e-08
2.72581e-08
2.99089e-08
2.72176e-08
2.98932e-08
2.78119e-08
3.11785e-08
2.79956e-08
3.13756e-08
2.7419e-08
3.21887e-08
2.80304e-08
3.13438e-08
2.8239e-08
3.04301e-08
2.79272e-08
2.95118e-08
2.74108e-08
2.96249e-08
2.73555e-08
2.97276e-08
2.69092e-08
2.97692e-08
2.42447e-08
2.95563e-08
2.20483e-08
2.80188e-08
2.07611e-08
3.39485e-08
6.01188e-09
3.39734e-07
3.3711e-08
2.8717e-08
3.52836e-08
2.96739e-08
3.58734e-08
3.11228e-08
3.37242e-08
2.89271e-08
3.28252e-08
2.8158e-08
3.22635e-08
2.74739e-08
3.16304e-08
2.75163e-08
3.14265e-08
2.69878e-08
3.0288e-08
2.73034e-08
2.99716e-08
2.76529e-08
3.12428e-08
2.82129e-08
3.22918e-08
2.89758e-08
3.11985e-08
2.89536e-08
3.01929e-08
2.86514e-08
2.93111e-08
2.74622e-08
3.00006e-08
2.74989e-08
2.98224e-08
2.71641e-08
2.98617e-08
2.45287e-08
2.97346e-08
2.2443e-08
2.67285e-08
2.04689e-08
3.28427e-08
6.2633e-09
3.41389e-07
2.81763e-08
3.16484e-08
2.90585e-08
3.36653e-08
3.17086e-08
3.29002e-08
3.14052e-08
3.16418e-08
2.95629e-08
3.07902e-08
2.88416e-08
3.08695e-08
2.80066e-08
3.09489e-08
2.71155e-08
2.88469e-08
2.76206e-08
2.98079e-08
2.75557e-08
3.07378e-08
2.77398e-08
3.12382e-08
2.82941e-08
3.18569e-08
2.87337e-08
3.06658e-08
2.85389e-08
2.99589e-08
2.78641e-08
2.93001e-08
2.70753e-08
3.009e-08
2.70711e-08
2.97345e-08
2.65111e-08
2.97692e-08
2.42012e-08
2.97468e-08
2.20893e-08
2.7543e-08
2.12139e-08
3.23696e-08
6.36738e-09
3.38701e-07
3.34245e-08
2.84359e-08
3.54283e-08
2.98332e-08
3.58332e-08
3.10679e-08
3.37715e-08
2.83427e-08
3.32208e-08
2.96235e-08
3.22296e-08
2.79573e-08
3.18694e-08
2.74848e-08
3.11354e-08
2.75176e-08
3.12426e-08
2.74369e-08
2.98197e-08
2.78155e-08
3.00069e-08
2.83789e-08
3.10808e-08
2.85745e-08
3.18356e-08
2.93416e-08
3.0642e-08
2.9383e-08
2.99957e-08
2.82081e-08
2.9444e-08
2.70384e-08
3.00486e-08
2.75176e-08
2.95144e-08
2.65524e-08
2.9666e-08
2.42013e-08
2.91595e-08
2.27449e-08
2.66338e-08
2.10002e-08
3.14373e-08
6.70422e-09
3.39815e-07
2.83327e-08
3.13014e-08
2.89751e-08
3.39867e-08
3.18233e-08
3.27615e-08
3.18517e-08
3.20288e-08
2.96965e-08
3.0441e-08
2.9307e-08
3.04756e-08
2.84262e-08
3.06824e-08
2.82556e-08
3.08754e-08
2.7658e-08
2.93001e-08
2.75925e-08
2.91667e-08
2.72022e-08
3.01444e-08
2.79288e-08
3.13037e-08
2.8673e-08
3.15307e-08
2.92955e-08
3.01769e-08
2.85633e-08
2.96569e-08
2.78257e-08
2.92032e-08
2.69144e-08
3.00835e-08
2.72193e-08
2.9939e-08
2.61385e-08
3.01334e-08
2.42467e-08
2.97188e-08
2.22562e-08
2.74929e-08
2.13122e-08
3.13323e-08
6.0613e-09
3.37622e-07
3.29503e-08
2.74335e-08
3.38027e-08
2.9575e-08
3.56036e-08
3.10645e-08
3.36008e-08
2.87603e-08
3.48414e-08
2.93499e-08
3.17756e-08
2.84368e-08
3.07022e-08
2.78351e-08
3.08513e-08
2.76199e-08
3.09976e-08
2.73275e-08
3.08016e-08
2.67421e-08
2.99029e-08
2.76361e-08
3.01067e-08
2.78114e-08
3.09727e-08
2.86436e-08
3.15673e-08
2.95971e-08
3.04123e-08
2.89268e-08
2.95119e-08
2.81457e-08
2.93504e-08
2.69155e-08
2.99142e-08
2.73523e-08
3.00205e-08
2.62655e-08
3.06866e-08
2.4684e-08
2.95771e-08
2.23915e-08
2.73324e-08
2.13413e-08
3.33531e-08
5.97354e-09
3.37675e-07
2.77151e-08
3.14193e-08
2.78139e-08
3.3273e-08
3.14402e-08
3.23705e-08
3.18058e-08
3.10631e-08
3.05428e-08
3.02148e-08
2.97705e-08
3.05825e-08
2.94366e-08
3.05142e-08
2.86686e-08
3.05515e-08
2.84389e-08
3.03825e-08
2.70707e-08
2.92272e-08
2.7723e-08
2.94588e-08
2.7356e-08
3.04189e-08
2.79574e-08
3.1521e-08
2.9091e-08
3.08661e-08
2.94672e-08
3.00385e-08
2.85581e-08
2.91832e-08
2.76953e-08
2.97107e-08
2.69987e-08
2.97761e-08
2.71007e-08
3.01318e-08
2.59747e-08
3.07361e-08
2.42704e-08
3.03071e-08
2.25594e-08
2.79973e-08
2.10241e-08
3.43489e-08
6.33046e-09
3.33923e-07
3.27297e-08
2.63305e-08
3.3317e-08
3.06046e-08
3.4931e-08
3.11284e-08
3.34444e-08
2.88739e-08
3.36046e-08
2.91326e-08
3.27245e-08
2.84014e-08
3.06703e-08
2.84239e-08
3.03815e-08
2.87267e-08
3.03952e-08
2.76619e-08
3.09381e-08
2.71866e-08
3.10436e-08
2.69228e-08
2.99956e-08
2.75863e-08
2.99717e-08
2.75916e-08
3.09457e-08
2.90611e-08
3.11559e-08
2.94529e-08
3.01449e-08
2.87971e-08
2.94332e-08
2.77878e-08
2.94972e-08
2.69443e-08
2.95858e-08
2.72706e-08
2.99905e-08
2.60141e-08
3.04366e-08
2.455e-08
3.00858e-08
2.29626e-08
2.70057e-08
2.05531e-08
3.29523e-08
6.56865e-09
3.3334e-07
2.6602e-08
3.19067e-08
2.72486e-08
3.31383e-08
3.0916e-08
3.24681e-08
3.17629e-08
3.14024e-08
3.09187e-08
3.13215e-08
2.99122e-08
3.05636e-08
2.97858e-08
3.06247e-08
2.91535e-08
2.99085e-08
2.83809e-08
3.0672e-08
2.81081e-08
3.04471e-08
2.77428e-08
2.96459e-08
2.7314e-08
2.94303e-08
2.73264e-08
3.03204e-08
2.80041e-08
3.11425e-08
2.92223e-08
3.05173e-08
2.92698e-08
2.98069e-08
2.84912e-08
2.93278e-08
2.73432e-08
2.98087e-08
2.70869e-08
2.95343e-08
2.70711e-08
3.04234e-08
2.56731e-08
3.0819e-08
2.46397e-08
3.05458e-08
2.23076e-08
2.84436e-08
2.13638e-08
3.22125e-08
6.93661e-09
3.32999e-07
3.42839e-08
2.65263e-08
3.37975e-08
3.04269e-08
3.41051e-08
3.18929e-08
3.37572e-08
2.90541e-08
3.47447e-08
2.88634e-08
3.25528e-08
2.85659e-08
3.14884e-08
2.81964e-08
3.06398e-08
2.84863e-08
2.96694e-08
2.8349e-08
3.07489e-08
2.74237e-08
3.04457e-08
2.71903e-08
3.09382e-08
2.71044e-08
3.01776e-08
2.69195e-08
3.03892e-08
2.78613e-08
3.09466e-08
2.89946e-08
3.07274e-08
2.91487e-08
2.97454e-08
2.86265e-08
2.97977e-08
2.73071e-08
2.98083e-08
2.69933e-08
2.96605e-08
2.69912e-08
3.04327e-08
2.61236e-08
3.14083e-08
2.44318e-08
3.0388e-08
2.26439e-08
2.75905e-08
2.13253e-08
3.14325e-08
6.29964e-09
3.33693e-07
2.72852e-08
3.21218e-08
2.87877e-08
3.27828e-08
3.03814e-08
3.26207e-08
3.14437e-08
3.16999e-08
3.10035e-08
3.13794e-08
2.995e-08
3.09898e-08
2.96424e-08
3.07221e-08
2.8994e-08
3.02895e-08
2.81178e-08
3.01642e-08
2.83899e-08
3.05041e-08
2.84765e-08
3.02825e-08
2.79435e-08
2.96015e-08
2.70182e-08
2.96143e-08
2.7669e-08
3.06762e-08
2.77581e-08
3.0825e-08
2.91834e-08
3.02684e-08
2.89604e-08
2.96301e-08
2.81504e-08
3.00549e-08
2.72114e-08
3.00097e-08
2.70831e-08
2.95999e-08
2.66788e-08
3.09099e-08
2.59553e-08
3.17391e-08
2.42497e-08
3.07263e-08
2.29991e-08
2.87251e-08
2.17177e-08
3.30853e-08
6.26612e-09
3.30873e-07
3.35034e-08
2.69033e-08
3.25796e-08
2.97362e-08
3.37579e-08
3.25791e-08
3.37646e-08
2.93654e-08
3.42037e-08
2.92632e-08
3.22121e-08
2.82003e-08
3.13971e-08
2.85244e-08
3.0414e-08
2.87835e-08
3.05783e-08
2.83354e-08
3.03796e-08
2.80299e-08
3.0591e-08
2.76938e-08
3.01676e-08
2.73145e-08
3.05641e-08
2.70421e-08
2.99139e-08
2.70691e-08
3.0064e-08
2.8102e-08
3.10434e-08
2.87692e-08
3.0519e-08
2.89572e-08
2.96399e-08
2.84472e-08
3.04968e-08
2.72321e-08
3.0086e-08
2.69392e-08
2.9624e-08
2.69905e-08
3.09533e-08
2.59884e-08
3.19758e-08
2.46707e-08
3.06467e-08
2.33656e-08
2.78447e-08
2.09616e-08
3.40343e-08
6.52003e-09
3.32032e-07
2.75896e-08
3.20656e-08
2.82324e-08
3.29813e-08
3.02317e-08
3.29339e-08
3.15789e-08
3.26674e-08
3.11289e-08
3.14074e-08
3.02648e-08
3.16461e-08
2.96022e-08
3.12921e-08
2.96511e-08
3.05433e-08
2.85743e-08
3.03968e-08
2.85601e-08
3.00648e-08
2.8072e-08
3.04837e-08
2.83356e-08
3.00908e-08
2.75302e-08
2.98252e-08
2.74056e-08
2.96154e-08
2.74905e-08
3.0397e-08
2.8137e-08
3.08327e-08
2.88095e-08
3.04839e-08
2.84507e-08
2.98791e-08
2.80084e-08
3.03872e-08
2.7227e-08
2.97882e-08
2.73262e-08
2.95599e-08
2.68314e-08
3.10473e-08
2.60985e-08
3.10549e-08
2.47959e-08
3.06014e-08
2.30509e-08
2.92183e-08
2.09745e-08
3.36094e-08
6.66991e-09
3.30726e-07
3.35576e-08
2.74166e-08
3.41303e-08
2.99091e-08
3.37973e-08
3.32123e-08
3.40187e-08
2.96429e-08
3.41832e-08
2.97574e-08
3.3878e-08
2.84378e-08
3.21888e-08
2.92447e-08
3.12894e-08
2.91327e-08
3.02383e-08
2.80213e-08
3.13671e-08
2.78482e-08
3.06295e-08
2.7939e-08
3.00719e-08
2.77164e-08
3.01938e-08
2.73319e-08
2.99279e-08
2.72641e-08
2.99776e-08
2.69241e-08
3.01677e-08
2.7987e-08
3.08378e-08
2.86655e-08
3.08782e-08
2.84814e-08
2.98195e-08
2.79438e-08
3.05505e-08
2.72365e-08
2.96325e-08
2.71029e-08
2.96529e-08
2.70976e-08
3.12843e-08
2.6079e-08
3.15482e-08
2.50255e-08
3.09126e-08
2.31493e-08
2.77447e-08
2.08208e-08
3.29464e-08
6.65179e-09
3.32027e-07
2.76004e-08
3.19682e-08
2.8906e-08
3.32326e-08
3.06922e-08
3.33599e-08
3.20264e-08
3.34037e-08
3.05689e-08
3.29504e-08
2.96435e-08
3.16784e-08
2.99989e-08
3.12552e-08
2.97564e-08
3.05986e-08
2.87274e-08
3.11782e-08
2.84313e-08
3.06027e-08
2.83055e-08
3.01422e-08
2.80896e-08
2.98951e-08
2.84419e-08
2.98506e-08
2.78956e-08
2.9667e-08
2.71802e-08
2.92797e-08
2.77882e-08
2.95775e-08
2.81878e-08
3.06805e-08
2.83276e-08
3.09786e-08
2.82962e-08
3.01494e-08
2.79539e-08
3.04077e-08
2.70835e-08
2.98307e-08
2.72561e-08
2.98515e-08
2.7037e-08
3.1306e-08
2.59292e-08
3.23024e-08
2.56764e-08
3.09269e-08
2.29509e-08
2.92591e-08
2.15687e-08
3.30847e-08
6.82921e-09
3.26856e-07
3.35604e-08
2.79474e-08
3.35314e-08
2.9852e-08
3.38824e-08
3.34323e-08
3.43165e-08
2.97533e-08
3.439e-08
3.01407e-08
3.42747e-08
2.91787e-08
3.29849e-08
2.90249e-08
3.23378e-08
2.90754e-08
3.06327e-08
2.8476e-08
3.04852e-08
2.81189e-08
3.04766e-08
2.81879e-08
3.1202e-08
2.76076e-08
3.05315e-08
2.77962e-08
2.98632e-08
2.73253e-08
2.99716e-08
2.71566e-08
2.97991e-08
2.70367e-08
2.97919e-08
2.79534e-08
3.06615e-08
2.84305e-08
3.11543e-08
2.81766e-08
3.0436e-08
2.79547e-08
3.04272e-08
2.70112e-08
2.97501e-08
2.70895e-08
2.98102e-08
2.72337e-08
3.12833e-08
2.61359e-08
3.17467e-08
2.5276e-08
3.08324e-08
2.37646e-08
2.75401e-08
2.10474e-08
3.2546e-08
7.0798e-09
3.29079e-07
2.78254e-08
3.27663e-08
2.90344e-08
3.38991e-08
3.09768e-08
3.34429e-08
3.23078e-08
3.36833e-08
3.03003e-08
3.35725e-08
3.01902e-08
3.31027e-08
2.95236e-08
3.18796e-08
2.96247e-08
3.09281e-08
2.9521e-08
3.13463e-08
2.84562e-08
3.02132e-08
2.83664e-08
3.00212e-08
2.81683e-08
3.08079e-08
2.78698e-08
2.99997e-08
2.82726e-08
3.01761e-08
2.76574e-08
2.96605e-08
2.6942e-08
2.96115e-08
2.74868e-08
2.98176e-08
2.77402e-08
3.12311e-08
2.80461e-08
3.09403e-08
2.80545e-08
3.03276e-08
2.76212e-08
3.06262e-08
2.68644e-08
2.95866e-08
2.69838e-08
3.0011e-08
2.69054e-08
3.12126e-08
2.66239e-08
3.16586e-08
2.60764e-08
3.07527e-08
2.30197e-08
2.87377e-08
2.1612e-08
3.18967e-08
7.35314e-09
3.2711e-07
3.35144e-08
2.88742e-08
3.38901e-08
3.01607e-08
3.37701e-08
3.35541e-08
3.43763e-08
3.02777e-08
3.43084e-08
3.06294e-08
3.43309e-08
2.97997e-08
3.36657e-08
2.98425e-08
3.19335e-08
2.97799e-08
3.14313e-08
2.90592e-08
3.15482e-08
2.85683e-08
3.15037e-08
2.84518e-08
3.0799e-08
2.79742e-08
3.0789e-08
2.75657e-08
3.04087e-08
2.74663e-08
3.05551e-08
2.73682e-08
2.98316e-08
2.72198e-08
2.98093e-08
2.72426e-08
3.0026e-08
2.77742e-08
3.08991e-08
2.83375e-08
3.10467e-08
2.83252e-08
3.06788e-08
2.76353e-08
3.05378e-08
2.67273e-08
2.98408e-08
2.68709e-08
3.00144e-08
2.70004e-08
3.12428e-08
2.6931e-08
3.13913e-08
2.59031e-08
3.04564e-08
2.40893e-08
2.80744e-08
2.13194e-08
3.10308e-08
6.89058e-09
3.24932e-07
2.86172e-08
3.1165e-08
2.96818e-08
3.42514e-08
3.15967e-08
3.33973e-08
3.22696e-08
3.39969e-08
3.06554e-08
3.37321e-08
3.06611e-08
3.38291e-08
3.08028e-08
3.30018e-08
3.02648e-08
3.18497e-08
2.98882e-08
3.10333e-08
2.94144e-08
2.99613e-08
2.79611e-08
3.06204e-08
2.84815e-08
3.02216e-08
2.79139e-08
3.07062e-08
2.74699e-08
3.03905e-08
2.79256e-08
3.01009e-08
2.75121e-08
2.95515e-08
2.68857e-08
2.96502e-08
2.70028e-08
2.99585e-08
2.74975e-08
3.08575e-08
2.8569e-08
3.08991e-08
2.81898e-08
3.035e-08
2.75457e-08
3.06152e-08
2.66605e-08
2.96233e-08
2.6911e-08
2.98886e-08
2.69422e-08
3.12585e-08
2.68118e-08
3.13488e-08
2.64499e-08
3.02165e-08
2.36592e-08
2.83521e-08
2.19676e-08
3.26643e-08
6.82854e-09
3.22028e-07
3.34048e-08
2.94442e-08
3.28916e-08
3.01059e-08
3.37343e-08
3.34349e-08
3.41648e-08
3.03604e-08
3.42977e-08
3.1272e-08
3.39852e-08
3.05316e-08
3.31263e-08
3.06625e-08
3.28516e-08
2.99593e-08
3.19012e-08
2.98596e-08
3.14217e-08
2.90684e-08
3.19516e-08
2.84047e-08
3.09458e-08
2.84425e-08
3.02235e-08
2.78746e-08
3.18573e-08
2.72416e-08
3.06898e-08
2.74367e-08
3.01918e-08
2.71952e-08
2.98157e-08
2.68746e-08
3.0096e-08
2.70515e-08
2.97712e-08
2.76166e-08
3.10658e-08
2.84661e-08
3.02862e-08
2.84988e-08
3.06546e-08
2.73702e-08
3.07888e-08
2.66263e-08
2.96934e-08
2.68574e-08
3.02375e-08
2.6859e-08
3.15501e-08
2.74335e-08
3.1229e-08
2.61797e-08
2.99835e-08
2.44087e-08
2.81235e-08
2.1208e-08
3.30536e-08
7.11731e-09
3.23167e-07
2.92453e-08
3.06167e-08
2.99155e-08
3.45455e-08
3.20316e-08
3.31207e-08
3.19959e-08
3.41782e-08
3.03718e-08
3.33507e-08
3.11253e-08
3.35961e-08
3.07172e-08
3.32776e-08
3.11717e-08
3.33017e-08
3.05564e-08
3.12437e-08
3.0047e-08
3.10553e-08
2.87649e-08
3.04556e-08
2.84369e-08
3.0462e-08
2.84521e-08
3.07247e-08
2.74992e-08
3.04558e-08
2.73484e-08
3.12002e-08
2.76495e-08
2.98891e-08
2.73303e-08
2.97133e-08
2.68823e-08
2.99302e-08
2.68236e-08
3.02088e-08
2.77316e-08
3.05522e-08
2.89981e-08
3.06299e-08
2.80701e-08
3.05624e-08
2.73161e-08
3.0645e-08
2.64659e-08
2.95101e-08
2.67823e-08
2.98562e-08
2.69571e-08
3.11543e-08
2.69162e-08
3.10869e-08
2.68012e-08
3.01523e-08
2.38319e-08
2.81993e-08
2.17122e-08
3.2792e-08
7.16478e-09
3.21367e-07
3.2983e-08
2.95749e-08
3.25716e-08
3.06971e-08
3.37053e-08
3.30578e-08
3.39145e-08
3.06469e-08
3.41746e-08
3.17967e-08
3.44647e-08
3.12518e-08
3.36983e-08
3.07821e-08
3.32662e-08
3.101e-08
3.24244e-08
3.03757e-08
3.14043e-08
2.9411e-08
3.12195e-08
2.92111e-08
3.1012e-08
2.89539e-08
3.06319e-08
2.81071e-08
3.08683e-08
2.75654e-08
3.19826e-08
2.71232e-08
3.11173e-08
2.73368e-08
3.08027e-08
2.71387e-08
2.97845e-08
2.68579e-08
2.99114e-08
2.7124e-08
2.98198e-08
2.78776e-08
3.07595e-08
2.84167e-08
3.02371e-08
2.83374e-08
3.07195e-08
2.71454e-08
3.06635e-08
2.64425e-08
2.99395e-08
2.67763e-08
3.00444e-08
2.71553e-08
3.152e-08
2.73574e-08
3.09153e-08
2.64409e-08
3.02244e-08
2.43364e-08
2.77868e-08
2.14676e-08
3.22318e-08
7.59184e-09
3.20269e-07
2.93699e-08
3.0391e-08
2.8652e-08
3.48418e-08
3.12309e-08
3.27149e-08
3.1408e-08
3.39156e-08
3.08761e-08
3.33108e-08
3.11963e-08
3.30194e-08
3.04336e-08
3.29635e-08
3.18607e-08
3.28103e-08
3.1327e-08
3.21279e-08
3.09846e-08
3.14391e-08
2.99068e-08
3.06478e-08
2.91938e-08
3.06713e-08
2.8529e-08
3.05994e-08
2.82871e-08
3.0961e-08
2.75129e-08
3.06237e-08
2.75141e-08
3.07969e-08
2.71716e-08
2.99024e-08
2.75381e-08
2.96836e-08
2.6969e-08
2.96492e-08
2.68678e-08
3.04451e-08
2.80884e-08
3.0249e-08
2.87791e-08
3.04238e-08
2.79623e-08
3.06748e-08
2.70638e-08
3.07792e-08
2.6249e-08
2.94991e-08
2.65493e-08
2.9896e-08
2.71244e-08
3.13057e-08
2.74955e-08
3.0812e-08
2.69443e-08
2.9944e-08
2.42757e-08
2.78148e-08
2.18001e-08
3.17227e-08
7.15194e-09
3.16353e-07
3.25461e-08
2.85828e-08
3.33836e-08
3.14322e-08
3.33467e-08
3.29159e-08
3.35049e-08
3.03774e-08
3.39658e-08
3.16184e-08
3.36459e-08
3.07002e-08
3.32465e-08
3.14349e-08
3.24376e-08
3.07663e-08
3.27214e-08
3.07321e-08
3.22117e-08
3.04174e-08
3.13381e-08
2.95691e-08
3.13322e-08
2.92622e-08
3.08094e-08
2.86738e-08
3.10849e-08
2.82408e-08
3.11092e-08
2.77756e-08
3.19924e-08
2.72307e-08
3.13695e-08
2.71644e-08
3.07478e-08
2.70194e-08
2.97401e-08
2.68989e-08
2.97668e-08
2.7223e-08
3.024e-08
2.78926e-08
3.03716e-08
2.83608e-08
3.03655e-08
2.79542e-08
3.0876e-08
2.69237e-08
3.08629e-08
2.63189e-08
2.99247e-08
2.66574e-08
3.01193e-08
2.72214e-08
3.13631e-08
2.76611e-08
3.05204e-08
2.61511e-08
3.01848e-08
2.44798e-08
2.76264e-08
2.21441e-08
3.26689e-08
7.07255e-09
3.18328e-07
2.92954e-08
3.04988e-08
2.84637e-08
3.3332e-08
3.06298e-08
3.2347e-08
3.06973e-08
3.34353e-08
3.06723e-08
3.32333e-08
3.12798e-08
3.27362e-08
3.10979e-08
3.27237e-08
3.04347e-08
3.25482e-08
3.1615e-08
3.21591e-08
3.15212e-08
3.18281e-08
3.08915e-08
3.15157e-08
2.97305e-08
3.07337e-08
2.96603e-08
3.05048e-08
2.85988e-08
3.04628e-08
2.82557e-08
3.06989e-08
2.76803e-08
3.06132e-08
2.76329e-08
3.07091e-08
2.73051e-08
3.02171e-08
2.72299e-08
2.98225e-08
2.68918e-08
3.00259e-08
2.68533e-08
3.04268e-08
2.80167e-08
3.02847e-08
2.84017e-08
3.05055e-08
2.7826e-08
3.08448e-08
2.68114e-08
3.09164e-08
2.6223e-08
3.01423e-08
2.63783e-08
3.03367e-08
2.70828e-08
3.13949e-08
2.75777e-08
3.071e-08
2.72665e-08
3.00706e-08
2.43432e-08
2.74239e-08
2.1619e-08
3.40577e-08
7.22818e-09
3.1357e-07
3.21388e-08
2.7797e-08
3.3603e-08
3.13775e-08
3.33221e-08
3.28092e-08
3.31575e-08
3.04732e-08
3.39449e-08
3.1657e-08
3.32704e-08
3.06675e-08
3.25327e-08
3.07792e-08
3.27099e-08
3.13115e-08
3.2433e-08
3.11387e-08
3.21528e-08
3.07579e-08
3.21539e-08
3.03189e-08
3.1155e-08
2.96388e-08
3.07448e-08
2.93571e-08
3.07823e-08
2.85811e-08
3.05987e-08
2.80302e-08
3.10998e-08
2.74746e-08
3.1989e-08
2.74492e-08
3.18626e-08
2.72975e-08
3.05549e-08
2.69499e-08
2.98949e-08
2.68354e-08
2.96256e-08
2.7104e-08
3.04377e-08
2.76618e-08
3.04688e-08
2.81063e-08
3.02241e-08
2.78592e-08
3.09653e-08
2.68924e-08
3.10258e-08
2.65199e-08
3.01441e-08
2.64294e-08
3.02343e-08
2.68963e-08
3.14108e-08
2.77948e-08
3.05838e-08
2.65902e-08
2.98088e-08
2.4914e-08
2.76164e-08
2.12243e-08
3.35975e-08
7.36293e-09
3.14434e-07
2.92125e-08
3.06669e-08
2.95422e-08
3.30134e-08
3.02945e-08
3.18411e-08
3.00893e-08
3.26823e-08
3.09652e-08
3.26939e-08
3.07685e-08
3.2068e-08
3.15533e-08
3.25522e-08
3.11421e-08
3.23787e-08
3.10981e-08
3.19891e-08
3.17035e-08
3.26907e-08
3.13249e-08
3.17589e-08
3.08996e-08
3.11276e-08
2.99535e-08
3.08164e-08
2.95612e-08
3.05731e-08
2.86396e-08
3.02484e-08
2.81732e-08
3.06796e-08
2.81049e-08
3.06425e-08
2.75816e-08
3.05945e-08
2.71163e-08
3.05092e-08
2.7284e-08
3.02575e-08
2.70841e-08
2.9792e-08
2.71051e-08
3.04077e-08
2.77357e-08
3.05645e-08
2.83536e-08
3.01629e-08
2.77138e-08
3.07879e-08
2.68405e-08
3.1095e-08
2.6315e-08
3.03674e-08
2.6282e-08
3.04656e-08
2.71909e-08
3.16902e-08
2.76512e-08
3.04444e-08
2.71929e-08
2.96325e-08
2.41194e-08
2.76767e-08
2.15795e-08
3.38616e-08
7.51922e-09
3.12566e-07
3.18629e-08
2.73339e-08
3.30751e-08
3.04568e-08
3.26067e-08
3.22988e-08
3.24791e-08
3.0319e-08
3.38172e-08
3.19473e-08
3.26713e-08
3.0693e-08
3.23495e-08
3.07073e-08
3.19085e-08
3.05422e-08
3.18516e-08
3.12456e-08
3.19886e-08
3.11169e-08
3.1604e-08
3.08626e-08
3.14131e-08
3.06819e-08
3.11109e-08
2.93739e-08
3.0613e-08
2.90994e-08
3.04408e-08
2.87071e-08
3.06038e-08
2.79698e-08
3.11986e-08
2.77437e-08
3.18109e-08
2.77009e-08
3.1623e-08
2.70539e-08
3.06526e-08
2.70746e-08
2.99506e-08
2.66165e-08
2.99728e-08
2.69522e-08
3.06311e-08
2.74067e-08
3.0631e-08
2.81294e-08
3.01431e-08
2.77088e-08
3.07518e-08
2.7039e-08
3.15492e-08
2.66449e-08
3.02193e-08
2.63072e-08
3.02934e-08
2.69865e-08
3.14119e-08
2.82064e-08
3.02464e-08
2.65514e-08
2.97775e-08
2.45984e-08
2.74824e-08
2.15749e-08
3.31485e-08
7.76292e-09
3.13127e-07
2.91206e-08
3.1369e-08
2.97809e-08
3.28308e-08
3.0123e-08
3.15953e-08
3.0055e-08
3.23799e-08
3.14829e-08
3.23931e-08
3.09084e-08
3.19496e-08
3.08033e-08
3.17523e-08
3.07957e-08
3.19039e-08
3.1323e-08
3.18307e-08
3.0885e-08
3.16187e-08
3.13034e-08
3.18895e-08
3.12307e-08
3.15658e-08
3.07383e-08
3.12859e-08
2.99975e-08
3.05018e-08
2.98378e-08
3.04213e-08