/*--------------------------------*- C++ -*----------------------------------*\
| =========                 |                                                 |
| \\      /  F ield         | OpenFOAM: The Open Source CFD Toolbox           |
|  \\    /   O peration     | Version:  2206                                  |
|   \\  /    A nd           | Website:  www.openfoam.com                      |
|    \\/     M anipulation  |                                                 |
\*---------------------------------------------------------------------------*/
FoamFile
{
    version     2.0;
    format      ascii;
    arch        "LSB;label=32;scalar=64";
    class       volScalarField;
    location    "190";
    object      ducSensor;
}
// * * * * * * * * * * * * * * * * * * * * * * * * * * * * * * * * * * * * * //

dimensions      [0 0 0 0 0 0 0];

internalField   nonuniform List<scalar> 
93840
(
0.489943
0
0.475717
0.00978738
0
0.491923
0
0.485293
0
0.468166
0.457092
0
0.394368
0
0.46794
0
0
0
0.00727764
0
0.461996
0
0.00357119
0
0
0.0221518
0
0.461738
0.00862374
0
0.000724984
0.3401
0
0.0269672
0
0.459361
0
0.00942824
0.00418281
0
0.272195
0
0.305085
0
0.469376
0.00417112
0
0.000755841
0.00572511
0
0.237922
0
0.298599
0
0.46708
0
0.00299468
0.00797572
0
0.0106976
0
0.00821397
0
0.301467
0
0.477492
0.00244457
0
0.00620552
0.00599543
0.00467123
0.00929559
0.0218415
0
0
0.27363
0
0.476568
0
0
0
0.00106043
0.00682073
0
0.00721344
0.00873726
0.0143573
0
0.283308
0
0.482166
0
0.00483748
0.00555651
0.0120908
0.00301901
0.0129527
0.00242127
0.00599495
0.021201
0.0206834
0
0.274051
0
0.481996
0.00131326
0
0
0
0.00714835
0.00266119
0
0.020959
0.00645252
0
0
0
0.277366
0
0.485716
0.00822248
0
0.0038292
0.00856883
0.00774809
0.014367
0.00357946
0.022879
0.011079
0.0314181
0.0191568
0
0
0.27605
0
0.485846
0
0.0168011
0.000588639
0
0.00588558
0.00147228
0
0.027464
0.00750983
0.0116917
0.0372622
0
0.0255338
0
0.27448
0
0.488177
0
0
0.000355484
0.00659582
0.0113236
0.00855301
0
0.0132763
0
0.023228
0.0221459
0
0
0
0
0.273632
0
0.488216
0
0
0.00759264
0
0.00430293
0.00529543
0
0
0.051963
0.0152341
0
0.0197506
0
0
0.0342206
0
0.271486
0
0.490451
0
0
0.000123586
0.00948334
0.00567915
0.0127164
0.0088505
0.00745427
0
0.00458583
1.72987e-05
0.00321122
0
0
0
0.000207691
0
0.270755
0
0.489581
0.0129221
0
0.00262089
0.0020073
0.000955032
0.00960857
0.000813705
0
0.0132128
0.0119992
0
0
0.0105467
0
0.0517651
0.0110711
0.0130728
0
0.269627
0
0.491462
0.0272119
0.0135362
0.0117849
0.00257082
0
0.0155349
0
0
0
0.0120323
0.0646053
0.0308378
0
0
0
0.0290282
0.0196661
0
0
0.268912
0
0.490284
0
0.00585606
0
0.00500496
0.0012433
0.0179113
0
0
0
0
0.00797804
0
0.00807677
0
0.0159864
0.0482232
0
0
0.0467824
0
0.269667
0
0.491816
0
0
0
0.00122732
0
0.0120053
0
0.0177563
0
0.00856074
0.0212751
0.00903744
0
0.0456068
0.000950378
0.0109027
0.00671216
0.0225639
0
0
0
0.267048
0
0.490221
0
0.0188036
0
0.00435076
0.00634989
0.0113277
0
0
0
0.037766
0
0
0
0
0.0342442
0.0172005
0.0428211
0.0158811
0.0020633
0
0.0278403
0
0.268079
0
0.491328
0
0
0
0.0105782
0
0.0134806
0
0.0204411
0
0
0.0296263
0
0.0223006
0.0395588
0.0221147
0
0
0.00411461
0.0433088
0
0.0273825
0
0
0.264193
0
0.491354
0
0
0.0113588
0.00185835
0.00688441
0.0136112
0.0183961
0
0
0
0
0.02713
0.0284046
0
0.0291306
0.0430551
0.0262004
0
0.0413786
0
0.0276356
0.00634181
0
0
0.264219
0
0.491504
0
0.0304519
0.0175143
0.00443788
0.000486334
0.0134479
0.010742
0.00242365
0
0
0
0.00116663
0
0.0285031
0
0.0140643
0.00975469
0.0465005
0
0.0581069
0
0.0307242
0.0129769
0
0
0.258426
0
0.489789
0.0243221
0.0108119
0
0.00422626
0.0103689
0
0.0121627
0.000681569
0
0
0
0
0.00403172
0
0.0522729
0.0084647
0.00534108
0.0042312
0.0366035
0
0.0092332
0
0.058369
0.0222058
0.0220318
0
0.259172
0
0.490718
0.0194064
0
0
0.00665059
0
0.00647726
0.0257728
0.00481589
0
0
0
0.0254351
0
0.0363943
0
0.0477392
0.0559713
0.0431751
0.012759
0.0622346
0.0170414
0.100185
0.0139827
0.0415828
0.0363504
0.00168632
0
0.254759
0
0.489967
0
0
0
0.0140216
0.00251988
0
0.0199231
0
0.0216976
0
0
0
0.0309577
0
0.0244176
0
0.0625812
0.0163991
0.0567859
0
0.0689142
0.0828865
0
0.0208681
0
0.063638
0
0
0.255982
0
0.491503
0
0.0108311
0
0.00148751
0.00614938
0.0097331
0.0163345
0.0220579
0
0.00126063
0.0259511
0.00321495
0
0.0232609
0
0.0420574
0.011688
0.0472404
0
0.0565778
0
0.0149997
0.0373162
0
0.0485239
0
0.0126859
0.012176
0
0.251842
0
0.489291
0.0107023
0.0270954
0
0.00252188
0.0102819
0
0.0166828
0.0173568
0
0
0
0.057428
0.0370313
0.00455603
0.0304828
0.00907542
0.0734298
0.0776109
0.0252333
0
0.0722814
0.0694093
0
0.0799951
3.62091e-05
0.0338185
0.0303017
0.00954296
0
0
0.24956
0
0.483711
0.0144384
0
0
0
0.00309304
0
0.00653614
0.0232028
0
0.0406414
0
0
0
0.0196343
0.032491
0.0269227
0
0.0604971
0.0206983
0.0513371
0.0216075
0.0626521
0.0199238
0
0.0646812
0.0265346
0
0
0.0466436
0
0
0.21535
0
0.498117
0
0
0
0
0.00392848
0.00983442
0.0246438
0.0135421
0.0165038
0
0
0.0373082
0
0
0
0.0452956
0.0192518
0.0455954
0.0159231
0
0.0264678
0.0608096
0.0410359
0.0490805
0
0.075304
0.075597
0
0.0551202
0.0533688
0
0
0
0
0.495778
0.00543006
0.00898287
0.020415
0
0.00165814
0.0115021
0.00573509
0.0205934
0.0195779
0.0128651
0.0247702
0
0.0020117
0
0
0
0.0459926
0
0.0287047
0.0455921
0
0
0
0.071748
0.0410799
0
0
0.122787
0.00411664
0.0399402
0.044385
0
0.0636606
0
0
0.495757
0
0.0286053
0
0
0.0135356
0
0.00782679
0.00261508
0.0187438
0.0389635
9.76161e-05
0.0397619
0
0
0.0415679
0.0319207
0
0.0540246
0
0.0211668
0.0606367
0.0481275
0.0230351
0
0.0876668
0.0703214
0
0
0.0877467
0.0279408
0
0.0698289
0
0.0157355
0.327857
0
0.490811
0.00962205
0
0
0.00709655
0.0208658
0.0157588
0.0018051
0.0155302
0.0643616
0.0179478
0.0584131
0.00313021
0.0233494
0
0
0.0488475
0.0407758
0
0.00501972
0.047704
0.0457699
0.0524351
0.033913
0.0381433
0.0519211
0.0519496
0.0296982
0.0335148
0
0.00849309
0.0109344
0
0.0299142
0
0
0.318316
0
0.488932
0
0
0.0178697
0.0284
0
0
0.00488194
0
0.0318559
0.0340161
0.0415452
0
0
0
8.22277e-05
0
0.00294543
0.0693001
0
0.0287684
0.0506094
0
0.0475617
0
0.041995
0.04178
0
0
0.0684476
0.0275567
0.00839552
0.0888975
0
0.0326239
0
0
0.25564
0
0.498514
0
0.0148521
0.00374571
0
0
0.0163734
0.00239435
0.0134069
0.0200795
0
0.0598758
0
0.0234264
0
0
0.0400641
0.0139693
0.00830194
0
0.000201701
0
0.0322722
0
0.0753159
0
0.0621773
0.0224691
0
0
0.075098
0.0307234
0.0416692
0.0639291
0
0.0523952
0.0113441
0
0
0
0.496365
0.0066826
0
0
0
0.00164935
0
0.00743612
0.000280908
0.0245214
0.0691
0
0.0401962
0.0250309
0
0.0300598
0
0.00807095
0.0151202
0.0329073
0
0.0335315
0
0.0677516
0
0.0942206
0
0.0643767
0.0830764
0
0
0.0578792
0.014012
0
0.100453
0
0.00460308
0
0.100018
0
0
0.494504
0
0.0427827
0.0105232
0
0.00841173
0.00841913
0.0138452
0
0.0526357
0
0.0318931
0.0120921
0
0.0117658
0
0.0499005
0
0.0564069
0
0.021542
0
0.0448382
0
0.0694476
0
0.0899419
0
0.038651
0.0678996
0
0
0.0433864
0.0384686
0
0.0585067
0
0
0
0
0.338936
0
0.494114
0.0248744
0.036632
0
0
0.000593215
0
0.00674802
0
0.0299065
0
0
0.0686577
0.00226469
0.00590268
0.0278524
0
0.0501047
0.00916333
0.018434
0
0
0
0.0783488
0
0.0871173
0
0.0782281
0.00588354
0
0.0774793
0
0.027304
0.0440446
0.058856
0
0.0404453
0
0
0
0
0.358578
0
0.492158
0
0
0
0
0
0.0121289
0.0133307
0.0193769
0
0.0646829
0.0740272
0
0
0.00720151
0.0284823
0.0143765
0
0.042056
0.0369896
0.0262012
0
0
0
0.0677466
0
0.0969967
0
0.0699893
0.0332577
0.0124359
0.0582668
0
0
0.0401263
0.0586718
0
0.0876582
0.010255
0
0
0
0.33464
0
0.486987
0.0467661
0.0204485
0
0.00241855
0
0.0189974
0.0180769
0.00710685
0.0489479
0.0399218
0
0.0230427
0.018564
0
0.0131623
0.00229548
0.00412487
0.0561448
0.0580817
0.00213135
0.013871
0
0
0
0.0673338
0
0.0861409
0
0.0649908
0.0893688
0.0174541
0.0382269
0.0245014
0
0
0.0806466
0
0.0449355
0.00499053
0.00694921
0.0072716
0
0.252085
0
0.498488
0.0339288
0.0127403
0
0
0
0.0124028
0.00955924
0.000495504
0
0.0231098
0.0421075
0.0504655
0.0324617
0.0866112
0
0.0450532
0
0.00532638
0.0493526
0
0.00797516
0.019985
0.0102509
0
0
0.0932224
0
0.104865
0.0149893
0.0566366
0.0399423
0
0.013725
0.052309
0.0397592
0
0.0591484
0
0.00248538
0
0.0533896
0
0
0
0
0.496122
0.0301544
0.0116163
0.0159195
0.000870506
0
0.0126747
0.00263166
0.000622004
0.0162311
0.0604599
0.0298167
0
0.116486
0
0.111387
0.0135753
0.0979405
0.0393578
0
0.0265853
0
0
0.0113585
0.0148021
0
0
0.122226
0
0.0853779
0.0851276
0.0329758
0.0859589
0
0
0.0335891
0.039348
0
0.0687015
0
0
0
0.00376034
0
0.084658
0
0
0.495419
0.0705464
0.0195172
0.0380448
0
0
0.0100762
0.00158106
0.0149653
0
0.0859262
0
0.0647173
0.0316585
0.0106605
0
0.0525447
0
0.112789
0.0363982
0
0.0255258
0
0.0115696
0.00627431
0.0322562
0.0262608
0
0.107666
0
0.0824522
0.0261375
0.0314337
0.0820146
0
0
0.0255332
0.0276819
0
0.0399326
0
0
0
0
0.0184186
0
0.349711
0
0.491318
0
0.0522412
0
0
0
0.00575417
0.00753584
0.009525
0.02849
0.0195216
0
0.0214484
0.0422743
0.0386169
0.100782
0.0122839
0.0178258
0.0574462
0.0641347
0
0.00655936
0.0362833
0
0.0226699
0
0.0104508
0.0215257
0
0.0884425
0.0295431
0.0683182
0.0729398
0.00220715
0.0998946
0
0
0.017757
0.0380994
0
0.0613668
0
0
0
0.00775351
0
0
0.342242
0
0.490778
0.00758006
0
0
0.013044
0.0129333
0.0125867
0.0158919
0
0
0.034943
0.0904116
0.0543936
0.0177135
0.0566267
0.0147434
0.116472
0.0894576
0
0.0121759
0.06265
0
0
0.0388572
0
0.0335494
0
0
0.0327937
0
0.0879951
0.0420967
0.0649488
0.0705277
0
0.0912291
0
0
0.0105277
0.0568355
0
0
0
0
0
0.0328002
0
0
0.266371
0
0.498802
0
0
0.0107669
0.0142053
0
0
0.000379708
0.0272154
0.00843985
0.0285543
0
0
0.0814494
0.0247985
0
0.0511178
0
0.0707133
0.00790571
0
0.0475453
0
0.0186337
0.00750648
0
0
0
0
0.0342052
0
0.0837994
0.0582352
0.0241965
0.0751786
0
0.0828961
0
0
0
0.0376627
0
0
0.000967355
0
0
0
0.0165976
0
0
0
0.497315
0
0.0243084
0
0
0
0.0149982
0.0189195
0
0
0.0494324
0.0804902
0.0479966
0
0.0713427
0.0752914
0.100062
0.104951
0
0.0509571
0.0603634
0.0113217
0.061042
0.0489362
0.0173164
0
0.0122028
0
0.00771627
0
0.0548566
0.0173373
0.0565198
0.0672877
0
0.0767982
0
0.0619715
0
0.00791356
0
0.00904831
0
0
0
0
0
0
0
0.075131
0.00256516
0
0.495192
0.00844942
0.00829077
0.00740979
0.0143808
0
0
0.00321621
0.0238206
0.00380207
0.00366152
0.0569895
0.0195466
0.104987
0.0354331
0.0699807
0.0391899
0
0
0.0769674
0.037659
0.0396432
0
0.0418301
0
0.0658794
0
0.0178019
0
0.0118396
0
0.0744981
0.0279716
0.00790619
0.0888522
0
0.0847275
0
0.00680489
0.0259025
0
0
0
0
0
0
0
0
0
0.0171586
0
0.33749
0
0.49511
0.0128258
0
0.0305346
0
0
0.0128998
0.0166346
0
0.0121364
0.0216928
0.0977072
0
0
0.0416385
0.0538973
0.0358955
0.100031
0
0.0409402
0
0.061106
0.0457411
0.00665492
0.0478956
0
0.0724461
0
0.0210752
0.0436352
0.0817587
0
0.0650471
0.0528865
0
0.0906306
0
0.0828723
0
0
0.0386535
0.00144695
0
0
0
0.0430473
0
0
0.0039076
0
0.0367389
0
0.35401
0
0.494403
0
0
0
0
0
0.00566908
0
0.0108443
0
0.0593336
0
0
0.0583365
0.0116248
0.0740943
0.0679735
0
0
0.0283492
0.0566459
0
0.0388457
0.0542155
0.0490102
0.0508004
0
0.119015
0.0601774
0.00966369
0
0.109719
0.0105571
0.0306595
0.0905361
0
0.0792367
0
0.0171325
0.0888339
0.0200476
0.00850816
0
0
0
0
0
0
0
0
0
0.0138945
0
0.343651
0
0.494374
0.0105712
0.0113453
0
0
0
0.00992959
0.0176229
0
0
0.019881
0.00935475
0.0720976
0
0
0
0
0.0956661
0
0
0.0853817
0
0
0.0409068
0
0.0342346
0.00258467
0
0
0.0398225
0
0
0.052655
0.0724953
0
0.0720553
0
0.0433452
0
0
0.0112748
0.0469991
0
0.0324178
0
0
0.00580916
0
0.0273694
0
0.04836
0
0
0
0.334155
0
0.493413
0
0
0.0295725
0.0306578
0
0.00919324
0
0.0231886
0
0.0141667
0.0164065
0.0183086
0
0.0194592
0.0264621
0.03199
0
0.051757
0.100007
0.0741409
0.0676262
0.0353993
0
0.0487392
0
0.0257273
0
0.0662718
0.0160581
0.054841
0
0.0400702
0
0.0800125
0
0.0999915
0
0.0184539
0
0.0551596
0
0.0510224
0
0.00738754
0
0
0
0
0.074612
0
0.0515954
0
0
0
0.311027
0
0.489819
0
0.0318918
0.00235635
0
0
0.00542852
0.0117965
0.0005594
0.00427064
0.0153415
0.00518282
0.0332432
0
0.032416
0
0.0443198
0.0679909
0
0.0272721
0
0
0.0543884
0.0600989
0
0.0992397
0
0.0964399
0
0.0505483
0.0115946
0.0626467
0
0.0599428
0
0.0640656
0
0
0.0364386
0
0.012567
0.0647213
0.0091814
0.0410939
0.0118827
0.00914508
0
0
0
0
0.0547256
0
0.0507782
0
0.00658004
0
0.251783
0
0.498534
0.0142808
0
0.00358463
0
0
0.0049814
0
0.0249147
0
0
0
0
0.0669889
0.0178153
0.0833957
0
0.0568957
0.0291301
0.0131027
0.0996039
0
0
0.0491975
0.0826641
0
0.0919644
0
0.0834466
0
0.0613434
0
0.0477566
0
0.0709885
0
0.0984168
0.00429476
0
0.0554812
0
0
0.0576445
0.0397419
0.0503774
0
0.011353
0
0.0111485
0
0
0.0473232
0
0.157247
0
0.0273647
0
0
0
0.495381
0
0.0535523
0.00553814
0
0
0.00479978
0.0139164
0.00126465
0.00140839
0.0136707
0
0.0618938
0
0.023952
0
0.0487277
0
0
0.00841374
0
0
0.0353916
0.00704305
0
0.0943543
0
0.0995401
0
0.0582861
0.00259161
0.0449331
0.0144561
0.0513876
0
0.0558834
0
0.0554755
0.054282
0
0.0718305
0
0
0.0707567
0
0.0600416
0.0135586
0.0206684
0
0.0176306
0
0
0.0453649
0
0.126336
0
0.026638
7.26852e-05
0
0
0.497255
0.0288097
0
0.0120766
0
0
0.00784051
0
0.0110771
0
0
0.0591467
0
0.0565737
0
0.053505
0
0.0665711
0
0.00128947
0.0471529
0.0119581
0
0.0496921
0.0520445
0
0.0993202
0
0.0371569
0
0.0537389
0
0.0209441
0.0179349
0.00504164
0
0.065455
0
0
0.0712722
0
0.0796428
0.00395386
0.00605713
0.0974458
0
0.0668048
0
0.0274299
0.00778605
0
0.0216075
0
0.0614967
0
0.0676991
0
0.0391698
0
0.326074
0
0.493727
0.00191889
0.0215081
0.0364121
0
0
0.000740674
0.0199476
0.00429904
0
0.0267548
0.00556508
0.0134169
0
0.0421053
0
0.0433858
0
0.101441
0.0890217
0.0495089
0.0309984
0
0
0.0203633
0.0776877
0
0.05049
0
0.035892
0
0.0519654
0
0.0449686
0
0.0160958
0
0.0342624
0
0
0.0452348
0
0.06751
0.0393255
0
0.0977607
0.00392377
0.0713562
0
0.0230032
0
0
0.0225255
0
0.0748565
0
0.0531533
0
0.0607491
0
0.327702
0
0.495856
0.025673
0.0296518
0
0
0.00661004
0.00892314
0
0.0128995
0.0118632
0.0208551
0.000796001
0.0364047
0.0476663
0
0.0611702
0
0.0806694
0
0
0
0.0426776
0
0.0659127
0.0206366
0
0.0500255
0
0.00279911
0
0
0
0.0480507
0
0.0211409
0
0.0453314
0
0.000833225
0
0
0.032047
0.0156923
0.0277778
0.0668026
0
0.085721
0
0.0680256
0
0.0587289
0
0
0.0165007
0
0.0621261
0
0.0545043
0
0.0400028
0
0.251914
0
0.496393
0.0159852
0.0197606
0.0466633
0.0117738
0.00553818
0.000985925
0.0296873
0
0
0.0356101
0
0.065731
0
0.0223494
0
0.0591495
0
0.0740149
0
0.0254585
0.0455498
0.00302072
0
0.032729
0.0440256
0
0.00854915
0
0
0
0
0
0.0456886
0
0.0183038
0
0.0204285
0
0
0
0.00716245
0.0562639
0.0432554
0
0.0672846
0
0.0717082
0
0.0373985
0
0.0287366
0
0.00198224
0.0427245
0
0.0653131
0
0.0662633
0
0.0263717
0
0
0
0.497972
0.0349435
0.0521109
0
0
0
0.00646868
0
0
0
0.0207049
0.012154
0.0037402
0.0528147
0
0.0776693
0
0.0745237
0
0.0678456
0
0.0134903
0.0276722
0.0561207
0
0.0147004
0.0542266
0
0
0.0103744
0
0.00839442
0
0
0
0
0.0404774
0
0
0
0.0428436
0
0.00901174
0.0540294
0.037535
0
0.0500131
0
0.061142
0
0.0419657
0
0.0182907
0
0.0129222
0.0336918
0
0.0584096
0
0.0407117
0
0.0388528
0.0626069
0
0
0.496102
0.0354272
0
0
0.0427654
0.0222587
0
0.00566114
0.0105497
0
0.047676
0
0.0767448
0
0.0385292
0
0.0442353
0
0.0441087
0.0224284
0.0656205
0
0.0307249
0
0.0438693
0
0
0.0188685
0.0496412
0.00974069
0.00953894
0
0.0194371
0
0.0236432
0
0
0.0766244
0
0
0.00982799
0.05337
0
0.047629
0.00889976
0.0313064
0.0431006
0.0285255
0
0.046305
0
0
0
0.018529
0
0.00575936
0
0
0.049693
0
0.051737
0.0509405
0.0659192
0.00610427
0.324079
0
0.496822
0.0224356
0.034732
0
0.0128293
0.000918579
0
0
0
0.0140596
0.020699
0.00434157
0
0.058909
0.0199328
0.0605744
0
0.0651148
0.0222123
0.084419
0.0059074
0.0378067
0
0.038813
0
0.0722741
0.03396
0.0131596
0
0.0644432
0.0639546
0
0
0.0452689
0
0
0.00101259
0
0
0
0.0122586
0.000796014
0
0.00551345
0.0740998
0
0.0449851
0.0675953
0.0429929
0
0.0250743
0
0
0
0.0321312
0
0
0
0
0.0507295
0
0.0482981
0
0.0179696
0
0.333168
0
0.496636
0.0445483
0
0
0
0
0.00364679
0.00918886
0.0155148
0
0.0496696
0
0.0997771
0.0133224
0.110308
0.0339503
0.0310622
0
0.0690154
0.0054683
0.0553686
0.0102198
0.0316405
0.051186
0.0508311
0
0.0224591
0.0220069
0.0608469
0
0.0481915
0.0433042
0
0
0.0352067
0
0.0234836
0.0341664
0
0
0
0.00841782
0
0.0313452
0
0.066077
0
0.0180485
0.0471304
0.0667649
0.00920246
0
0
0
0
0.0623209
0
0.0579751
0
0
0.0576372
0.0245339
0.0506593
0.00807812
0
0
0.334722
0
0.495129
0.0118097
0.0370936
0.058734
0.084814
0
0.00170652
0
0
0.00207159
0.0318173
0.0608072
0.0296709
0
0.0216505
0
0.00709685
0.0825774
0.0135953
0.0327915
0.0152634
0.0360008
0.0732243
0.0522446
0
0.0422493
0.00310103
0.0506589
0
0.0411822
0
0
0.0840248
0
0
0.0268532
0
0.00222134
0
0
0
0
0
0
0.0519974
0
0.0441984
0
0.014326
0.0105681
0.0764928
0
0
0
0
0
0
0
0.0419388
0
0
0.0712301
0.0102528
0.0210544
0.0596904
0
0
0.309764
0
0.492443
0.0353609
0
0.00813173
0
0
0
0
0.0171753
0
0.052452
0.0135106
0.077308
0.0604093
0.0424059
0.0831236
0.0525011
0
0.0548606
0.002146
0.0666427
0.0849485
0.0569332
0.00377411
0.0358593
0.0574934
0.0612958
0
0.0564242
0
0.058785
0
0
0.0170894
0
0
0.0235334
0
0.0293198
0
0
0
0
0
0
0.0514659
0
0.0418336
0.0191514
0.03282
0.000365911
0.0918292
0
0
0
0
0
0
0
0
0
0.000232174
0.0654794
0.0370339
0.0195084
0.0250892
0.029265
0
0.242356
0
0.499432
0
0
0
0
0.000226819
0.00250074
0
0.0139863
0
0.0381529
0.0266622
0.0128545
0.013869
0.052231
0
0.045708
0.039983
0
0.0929008
0.0140839
0.0762505
0.00568461
0.0279012
0
0.0220214
0.00901084
0.0387171
0
0
0.0578531
0.0458095
0.0155248
0
0
0
0
0
0
0.0580588
0.00951196
0
0.0710988
0
0.000973255
0
0.0339398
0
0
0.0483903
0.0346367
0
0.0961134
0
0.0432428
0
0
0
0.0483062
0
0
0.0268467
0.0184513
0.059978
0.0178534
0
0.046037
0
0
0
0
0.497433
0.0270263
0
0.0332971
0.0237549
0
0.0100734
0
0.0147372
0
0.0478965
0
0.0849093
0.0275532
0
0.0654405
0
0.0543734
0.100007
0.0373198
0.0517021
0.0121114
0.0321641
0.0491569
0.0324492
0.118586
0.0194096
0.0268695
0.0649294
0.0143601
0
0.0420746
0.048538
0.0514834
0
0
0
0
0
0
0.0105688
0
0.011448
0
0
0
0.00353379
0
0.0167017
0.0184907
0.0329983
0.0430258
0
0.0983942
0
0
0.0392957
0
0
0.0204694
0
0.030911
0.0315591
0.0694779
0.0783963
0
0
0.0388477
0
0.0744057
0
0
0.496693
0
0
0
0
0
0
0
0.0142142
0.00946304
0.0430447
0.0210342
0.0651959
0.0275464
0.0359263
0
0.0721848
0
0
0
0.0279473
0.0873871
0.0455116
0.0781512
0.0520706
0.0327863
0.0192913
0.0171913
0.0213829
0.0285087
0.0323443
0
0.0296303
0.0268236
0.0305062
0
0
0
0
0
0
0.0270778
0
0.00389284
0
0
0
0.0179879
0
0.00161913
0.0563805
0.0243125
0.0514089
0
0.0993469
0
0
0.0605717
0
0.00735333
0.0178086
0
0.00292594
0.0266198
0
0.117029
0.00251769
0
0.0611611
0
0.00384215
0.318318
0
0.495972
0.0418318
0.00893338
0
0.0241763
0.0182117
0
0
0.0215306
0
0.0197298
0
0.0037982
0
0.00969352
0.0712813
0
0.0595976
0.00832996
0.0509177
0.0394236
0
0.0514351
0.0322989
0.0345169
0.067959
0
0.0515763
0.00425736
0.0611533
0.0419953
0.0676309
0
0.0169361
0.0200069
0.0428076
0
0
0
0
0
0
0.0400502
0
0.00700556
0.0414622
0
0
0
0
0
0.0651549
0.0155519
0.0551806
0
0.0714526
0
0
0.0352662
0
0
0
0
0.0212171
0.0377382
0
0.115724
0.027582
0.0040894
0.0508455
0
0
0.320385
0
0.495724
0
0
0.00244131
0
0.00401699
0
0.00693047
0.03381
0
0.0468022
0.0282412
0.04825
0.0186382
0.0708419
0
0.0346207
0
0
0.0916904
0.0488146
0.0435084
0.00116097
0.0579673
0.0393756
0.0654553
0.0459435
0.0138527
0.0568052
0.00574975
0.0357618
0.0169357
0
0.0158202
0.0119202
0
0.0128477
0
0
0
0
0
0
0.0236933
0
0.0513505
0
0
0.0194458
0.0264456
0
0.00949045
0.0324534
0
0.0647121
0
0
0
0
0.0344759
0
0
0
0
0
0.0744534
0.00640066
0.100513
0.0309061
0
0.0500073
0
0
0.253149
0
0.498852
0
0.0103933
0
0.0309704
0
0
0
0.00302809
0
0
0
0.073647
0.0517131
0.0117347
0.0103607
0
0.00373471
0.0722209
0
0
0
0.0725715
0.0356407
0.0440612
0.0606268
0.0320047
0.0528787
0.0306877
0.0434296
0.0167091
0.0533013
0
0
0.0185084
0.0182023
0
0.0180825
0
0
0.0178325
0
0
0
0.0229605
0
0.0271437
0
0.021507
0
0.00377287
0.0313055
0
0
0
0.0688685
0
0
0.00308507
0
0.0287907
0
0
0
0
0
0.0622198
0.0268193
0.0628277
0.034298
0
0.0571641
0
0
0
0
0.498328
0.0036655
0
0.0115407
0.0484162
0.00155065
0.000754924
0.00668554
0.0128403
0
0.0487567
0.0275681
0.0253267
0
0.0564188
0
0
0.0644681
0
0.0110526
0
0.071871
0
0.0362769
0.0402514
0.0606471
0.0385215
0.0247747
0.0423693
0.0173667
0.0313017
0.00813574
0.043437
0
0.0551544
0.0744845
0
0
0.042597
0
0
0.0319457
0
0.0167845
0
0.0389944
0
0.0334519
0
0.0531601
0.0116671
0.00272028
0.0150892
0
0
0
0.0651997
0
0
0.0580225
0
0.00486107
0
0
0
0
0
0.0468203
0.0502738
0.0578838
0.0543176
0
0.055383
0
0.0543015
0
0
0.49665
0
0
0
0
0
0
0
0.0119937
0
0
0
0.0806533
0.0745746
0
0.0435828
0.0606609
0
0.0766835
0
0.0218431
0.00887623
0.0110526
0
0.0742375
0.0595426
0.0344527
0.0687426
0.0218032
0.0484062
0.0156945
0.0454222
0.0216692
0.0512524
0.0461289
0.0834534
0
0.00286701
0
0.0584466
0
0
0.0325317
0
0.0331961
0
0.0362643
0
0.00408185
0
0.0180358
0
0
0.0171362
0.000148279
0.0141184
0
0.0598774
0
0
0.040452
0
0
0
0.0541388
0.0945576
0
0
0.0424613
0.0149517
0.0721737
0.0478718
0
0.0685501
0
0.0411818
0.31156
0
0.496486
0.00852824
0
0.0253181
0.0384881
0
0
0.00768128
0.00627526
0
0.0141709
0
0.029801
0
0.0357112
0.00980651
0
0.0424422
0.00415917
0.0373564
0
0.0120895
0
0.0313215
0.0135636
0.0801032
0.0428091
0
0.061303
0.0203314
0.0506626
0.0284238
0.0430008
0.03467
0.0457535
0.0365524
0.0401205
0.0271232
0.0456863
0
0
0.0100592
0
0.0560064
0
0.066777
0
0.051774
0
0.0420631
0
0.0257908
0.0173455
0
0
0
0
0
0.0532674
0
0
0.0446043
0
0.0176216
0
0.0161924
0
0
0.034596
0.0650887
0
0.0411942
0.0679198
0
0.0643578
0
0
0.318839
0
0.495258
0
0.0154894
0
0
0
0
0.0139231
0.00435434
0
0
0.0172999
0.0273009
0.0700657
0
0.0184903
0.0374566
0
0.0504293
0
0.0530588
0
0
0
0.0485635
0
0.0188526
0.0749942
0
0.066424
0
0.0526255
0.03576
0.0320923
0.0185893
0.00977225
0
0.060411
0
0.00898226
0
0
0.0314354
0
0.0396604
0
0.101806
0
0.0459528
0
0.0425765
0.0297624
0
0.0438518
0
0
0.0476818
0
0.0314817
0.0505147
0
0
0.0478905
0
0.050464
0
0
0
0
0
0.0699931
0.0341122
0.00717341
0.0936595
0
0.0759853
0
0
0.305153
0
0.494685
0.0185477
0
0.0726401
0.066763
0
0.0023956
0.00688502
0
0
0.0148355
0
0.0293927
0
0.0294286
0.015292
0
0.0362627
0
0.0502085
0
0.0472988
0.0304276
0.0804808
0.0308765
0
0.0344108
0
0.0696872
0
0.0407592
0
0.0410951
0.0475923
0.0109729
0.0480893
0.000309461
0
0.0437924
0
0.00337088
0
0
0.0411666
0
0.0385774
0
0.0843394
0
0.0510989
0
0
0.0278987
0.0165814
0
0
0
0.0483225
0.0177294
0.0165667
0.0371913
0
0
0.0527996
0
0.040492
0.018461
0
0
0
0
0.0443489
0.0450671
0
0.087251
0
0.0765582
0
0
0.292949
0
0.49494
0
0.000324504
0.0368366
0
0
0.00196513
0.0261076
0.00152626
0.0109278
0
0
0.0414079
0.0683211
0.068346
0
0.0872189
0
0.0747185
0
0.0301273
0.132431
0.022494
0
0.0360226
0.0487308
0.0442981
0.0592008
0
0.100088
0
0.0563835
0
0.0266928
0.0524102
0
0.0519323
0.0285925
0
0.049976
0
0
0
0
0.0728129
0
0.0472492
0
0.0286881
0
0.0312442
0.052075
0
0
0.0265935
0
0
0
0.0141454
0
0
0.00519051
0
0
0.0789371
0.00191142
0.0452006
0.0729184
0
0
0
0.0243998
0.0572764
0.0333125
0
0.0595281
0
0.0933226
0
0
0.290849
0
0.49307
0.0211239
0
0
0
0
0.00528857
0
0
0
0
0.00384622
0.021531
0
0
0
0
0
0
0.045948
0.027926
0
0
0.0356427
0.0124843
0
0
0.0354242
0.0342827
0
0.101308
0
0.043673
0
0.0237126
0.0455123
0
0.0477083
0.0308876
0
0.0340948
0.0111002
0.0379781
0
0
0.0528806
0
0.0404219
0
0.0437768
0
0.0467549
0
0.0209765
0
0.0280195
0
0
0
0.0728646
0
0
0
0
0
0.0865646
0
0.0630976
0.0257031
0
0
0.00531777
0.0206092
0.0699186
0.0523162
0
0.0430702
0
0.0601323
0
0
0.275848
0
0.494407
0
0
0.0666551
0
0
0.020089
0.0318686
0.00170759
0.0196568
0
0
0.0227348
0.0299579
0.0849779
0
0.0379228
0
0.00898042
0.00615692
0.0707172
0.027338
0
0
0.0464737
0.0370949
0.0144171
0.0233119
0
0.00150254
0
0.100691
0
0.0218988
0.020772
0.0276039
0.0566478
0.0079245
0.0509461
0.0412321
0
0.0358996
0.0194973
0
0
0
0.0559323
0
0.0445857
0
0.052898
0
0.0338844
0
0.0243667
0
0.0551246
0
0
0
0.0655555
0
0
0
0.0440152
0
0.081038
0
0.0356546
0
0
0
0
0
0.0349775
0.0609915
0
0.0547625
0
0.0435999
0.00946797
0
0.209727
0
0.497176
0.0457611
0
0
0
0
0.0160036
0
0
0
0
0
0.0205723
0
0
0.169207
0
0.0629576
0.0239332
0
0.0645609
0.0231247
0
0.0352013
0.03976
0
0.0123001
0.0788126
0.0764462
0
0.0487419
0
0.0283318
0
0.0350545
0
0.0143307
0.0608702
0.00460462
0.0316176
0.0293348
0.0405236
0.0339044
0.0163889
0
0
0
0.048527
0
0.0480121
0
0.0371121
0
0.0388707
0
0.0384845
0
0.0341204
0
0
0
0.0723682
0
0
0
0.0262232
0
0.0922276
0.0229085
0
0
0
0
0.0186752
0.00683292
0
0.0844894
0
0
0.00317616
0
0
0
0
0
0.493921
0.0536419
0.0183405
0
0.0205208
0.0164081
0.00735504
0.0177803
0
0.0150513
0.00142831
0
0.00733749
0.013039
0.0580931
0
0.106988
0.00219697
0.0874053
0.00191952
0.00867007
0.0216369
0.0587739
0
0.0728079
0.0557576
0
0
0
0.08412
0.0124789
0.0641198
0
0.0134929
0
0.0497872
0.0248809
0.0123877
0.0633471
0.00316635
0.0211664
0
0.0378742
0.0365662
0.0578035
0.0673333
0.00770182
0
0.0520154
0
0.0536866
0
0.0559404
0
0.048058
0
0.0203627
0.0386798
0.0229139
0
0.0161412
0
0.0606348
0
0
0
0.048775
0
0.0701535
0.026257
0
0
0
0
0.029988
0.0822824
0
0.0847006
0
0
0.0392096
0.00815004
0
0.0484459
0
0
0.500053
0
0.00770104
0.0195035
0.0174517
0
0.00987785
0
0
0.00714259
0
0
0.0117584
0
0
0.0117747
0
0.116098
0.0663273
0
0
0
0
0.0464262
0
0.0452866
0
0.0490974
0.0669545
0
0.0157269
0
0.0397818
0
0
0
0.0500632
0.0397078
0.0193818
0.0638765
0.0449617
0.00414539
0.0165221
0.0247015
0.05275
0.0318513
0.0099267
0.0197938
0
0.0497849
0
0.0463561
0
0.0529501
0
0.0658971
0.0398271
0
0.0336385
0.0111491
0
0.0179257
0
0.0754444
0
0
0
0.0512101
0
0.0310555
0.0438344
0
0
0.00793928
0
0.0332299
0.0028489
0
0.0708135
0
0
0.039052
0.00805355
0
0.00126207
0
0
0.49848
0.0305539
0.0101532
0.00571233
0
0
0.0120656
0
0
0.0286229
0
0
0
0
0.0689667
0
0.0529791
0.00889489
0
0.0342815
0.0395278
0
0.041628
0
0.0625843
0.0131358
0.0480328
0
0.0296224
0
0.0316669
0.0339823
0.0196515
0.0195536
0
0.0246807
0
0.0465981
0.0290128
0.0192238
0.0298705
0.0307096
0
0.0550312
0.0458003
0
0.00997459
0.0355652
0.0465188
0
0.0585151
0
0.0596706
0
0.0510453
0
0.0615118
0.0280291
0.0058246
0.059638
0.00515539
0.0211668
0.0576115
0
0.0787235
0.0368295
0
0
0.0426932
0
0.0337974
0.0194384
0
0
0.0186609
0
0.0108461
0
0
0.00595953
0
0
0.0124131
0
0.00539201
0
0.00775633
0
0.497258
0
0.00434828
0.0002501
0
0
0.0314208
0
0.00215585
0
0
0
1.81646e-05
0
0.0403123
0
0.0132071
0
0.0291532
0.00668634
0
0.154323
0.0596335
0.0195589
0
0
0.02335
0.0141469
0.0220933
0.00431141
0
0.0295396
0.00763972
0
0.0208889
0.0191641
0.030659
0
0.0535265
0.0351567
0.0391465
0.0252273
0.0388823
0
0.0355644
0.0452448
0
0.021841
0.0338951
0.0513957
0
0.0541236
0
0.0590998
0
0.0510532
0.00354235
0.0424937
0.0567106
0.00522363
0.0561789
0.00829449
0
0.0545536
0
0.0270267
0.0331152
0
0
0.0398571
0.0137798
0.042928
0
0.00345857
0
0.00432564
0
0.0141419
0
0
0
0
0
0.00622868
0
0.0135586
0
0.304796
0
0.497684
0
0.0284736
0
0
0
0.015913
0.034296
0.00443225
0.0217262
0
0.0146759
0
0.0195096
0
0
0.0836646
0.00787401
0.0911369
0.077311
0.0719108
0
0.0318439
0
0.0489361
0
0
0
0.0212558
0.0150386
0.0564669
0.0558873
0.00820881
0
0.0364664
0.0154429
0.0275301
0.0416075
0
0.04132
0.0532295
0.0563639
0.0205413
0.0359092
0
0
0.0518905
0
0.0217322
0.0338015
0.0590253
0
0.0569814
0
0.0798175
0
0.0489449
0
0
0.0532261
0.0141081
0.042015
0
0
0.088928
0
0.03706
0
0.0200476
0
0.0349322
0
0.0497797
0
0.00567674
0.0164265
0.0126471
0
0.0428296
0
0
0
0
0
0.0291307
0
0
0
0.313287
0
0.49617
0.0263932
0.0129636
0.0116814
0.0163496
0
0.0356205
0
0
0
0
0
0
0
0
0
0
0
0.0408592
0
0.0296567
0.147185
0.0599195
0
0.0271878
0.0319887
0.00776673
0.0424899
0
0.0365928
0
0.0435184
0.0289915
0.0246249
0
0
0
0.021959
0.0406076
0
0.0153619
0.0412411
0.0613644
0.00186532
0.0319651
0.00119211
0
0.0633183
0
0.0127756
0
0.0775408
0
0.0669373
0
0.0868344
0
0.0437025
0.0112152
0
0.0463274
0
0.025687
0
0
0.112528
0
0.0433357
0
0.0340817
0
0.0344739
0
0.0497318
0
0
0
0.0380517
0
0.0515676
0
0
0
0
0
0.0289045
0.0247717
0
0
0.314873
0
0.497217
0.0278456
0.0266771
0
0
0
0.00907631
0
0
0.0191405
0
0.0172261
0
0.0367796
0.036667
0.0550559
0.0369899
0
0.0472027
0.102344
0
0
0
0
0.0201583
0
0.0776245
0
0.0262103
0.056547
0.0617084
0.0530094
0.00970542
0.0448029
0.0152139
0
0.00278705
0
0
0.018599
0
0.00793663
0.00812334
0.0619522
0
0.0408325
0.0160099
0
0.067848
0.01081
0.00639809
0
0.0696681
0
0.0908761
0
0.0928904
0
0.0554451
0.0254653
0
0.0573446
0
0.0289123
0
0
0.0407842
0
0.0286896
0
0.0224268
0.0177806
0.0431808
0
0.051458
0
0
0
0.0475323
0
0.0282834
0
0
0
0.00071579
0
0.00660804
0
0
0
0.289097
0
0.4947
0
0.0479958
0.00416067
0.00106754
0
0.0155851
0
0.00103649
0
0
0
0
0
0
0.0537981
0
0.00866634
0
0.004565
0
0
0.0381916
0.11607
0.0384607
0.0801882
0
0.0224103
0
0.0279151
0
0.0383113
0.0435803
0.020724
0.015689
0.0660046
0.0359754
0.000611746
0.012796
0
0.00671906
0.0298903
0.0266782
0
0.0667731
0
0.0473815
0.0315417
0
0.0606431
0.0246572
0
0
0.0670482
0
0.103163
0
0.0765827
0.0448786
0.0348861
0.0307408
0
0.0581334
0
0.00501489
0
0.0267037
0.046269
0
0.0401081
0
0.0523044
0.0293902
0.0526772
0
0.0433783
0
0
0
0.0496839
0
0.0400664
0
0.00499002
0
0.0082309
0.0375149
0
0
0.00781607
0
0.218058
0
0.497619
0.0243587
0
0.0365653
0
0
0.0150934
0
0.0067467
0.018041
0
0.0206378
0.00367374
0.0373254
0.00112704
0.0264904
0
0
0.0666667
0.0644109
0
0
0.0833424
0.001937
0.031105
0
0.138371
0
0.0763011
0
0.0253832
0.0267507
0.0292497
0.044484
0
0.0847633
0.0350559
0.0376413
0.0475113
0
0
0
0.0480814
0.0380265
0
0.0692979
0
0.053274
0.0410038
0
0.0538136
0.0491609
0
0
0.0603027
0
0.0755315
0
0.0588538
0.0191037
0.0314665
0.039006
0
0.0548507
0
0
0
0.00224398
0.0694704
0
0.0335359
0
0.0589489
0
0.0691737
0
0.0333672
0.020028
0
0
0.0515579
0
0.0502258
0
0
0
0.0217233
0.0141579
0
0
0.0761053
0
0
0
0.497512
0
0.00280194
0
0
0
0.0295752
0
0.00564381
0
0
0
0
0
0
0
0.0733744
0.180454
0
0
0
0.0690099
0.0356039
0
0
0.139813
0
0
0
0.050956
0.0181916
0.0743487
0.0127657
0.00952266
0.0491826
0
0.0223256
0.0240893
0
0.0183847
0.0657932
0.0251989
0
0.0381609
0.0412998
0
0.0719038
0
0.0509521
0.0514201
0.0138351
0.0524212
0.0583113
0
0