/*--------------------------------*- C++ -*----------------------------------*\
| =========                 |                                                 |
| \\      /  F ield         | OpenFOAM: The Open Source CFD Toolbox           |
|  \\    /   O peration     | Version:  2206                                  |
|   \\  /    A nd           | Website:  www.openfoam.com                      |
|    \\/     M anipulation  |                                                 |
\*---------------------------------------------------------------------------*/
FoamFile
{
    version     2.0;
    format      ascii;
    arch        "LSB;label=32;scalar=64";
    class       volScalarField;
    location    "190";
    object      nut;
}
// * * * * * * * * * * * * * * * * * * * * * * * * * * * * * * * * * * * * * //

dimensions      [0 2 -1 0 0 0 0];

internalField   nonuniform List<scalar> 
93840
(
3.52299e-07
1.1315e-10
3.56656e-07
5.99531e-08
9.5311e-11
3.13092e-07
4.23839e-09
4.25592e-08
8.09917e-10
2.32394e-07
5.32746e-08
1.49852e-08
4.6766e-08
4.56101e-09
1.95733e-07
2.36104e-08
3.12526e-08
1.47425e-08
5.22566e-08
5.73091e-09
1.58963e-07
3.45433e-08
2.34584e-08
3.36408e-08
1.05344e-08
3.85481e-08
7.28265e-09
1.9211e-07
2.64205e-08
3.39351e-08
2.13544e-08
3.81651e-08
1.44825e-08
4.13415e-08
6.02037e-09
1.69388e-07
3.41017e-08
2.52019e-08
3.35809e-08
2.43821e-08
3.23808e-08
1.75573e-08
3.30193e-08
6.252e-09
1.95877e-07
2.76809e-08
3.65858e-08
2.47695e-08
2.90719e-08
2.41254e-08
2.97603e-08
2.07423e-08
3.19567e-08
5.84709e-09
1.79608e-07
3.3446e-08
2.73434e-08
3.47761e-08
2.50968e-08
2.97152e-08
2.34371e-08
2.50463e-08
2.18124e-08
3.11599e-08
6.75397e-09
1.99575e-07
2.70752e-08
3.44609e-08
2.5955e-08
3.29164e-08
2.62206e-08
2.77677e-08
2.46163e-08
2.77581e-08
2.17302e-08
2.87824e-08
6.2147e-09
1.79023e-07
3.24126e-08
2.70852e-08
3.52102e-08
2.84974e-08
3.19612e-08
2.63713e-08
2.88845e-08
2.28704e-08
2.59426e-08
2.23084e-08
2.95259e-08
6.41692e-09
1.93104e-07
2.66891e-08
3.28327e-08
2.6256e-08
3.32363e-08
2.72966e-08
2.94584e-08
2.67984e-08
2.88559e-08
2.45028e-08
2.74713e-08
2.26169e-08
3.05617e-08
6.23707e-09
1.84986e-07
3.15332e-08
2.66224e-08
3.38392e-08
2.88871e-08
3.21546e-08
2.76189e-08
2.99255e-08
2.59881e-08
2.85747e-08
2.35087e-08
2.5443e-08
2.16899e-08
3.0355e-08
6.53678e-09
1.92923e-07
2.66499e-08
3.15963e-08
2.66124e-08
3.23505e-08
2.81735e-08
3.05541e-08
2.7471e-08
3.05689e-08
2.62645e-08
2.91709e-08
2.41149e-08
2.75956e-08
2.23359e-08
2.9268e-08
6.23723e-09
1.8468e-07
3.1679e-08
2.62289e-08
3.33016e-08
2.81392e-08
3.25208e-08
2.81271e-08
3.00709e-08
2.80735e-08
3.02983e-08
2.62819e-08
2.86162e-08
2.37351e-08
2.55718e-08
2.22528e-08
3.02139e-08
6.49341e-09
1.90325e-07
2.663e-08
3.16469e-08
2.68852e-08
3.20928e-08
2.84298e-08
3.06371e-08
2.69214e-08
3.13684e-08
2.635e-08
3.06711e-08
2.60588e-08
2.77453e-08
2.40887e-08
2.76391e-08
2.27107e-08
3.03418e-08
6.46337e-09
1.84426e-07
3.22684e-08
2.68748e-08
3.32705e-08
2.75579e-08
3.27132e-08
2.77242e-08
3.03095e-08
2.84573e-08
3.05676e-08
2.80108e-08
2.97518e-08
2.61039e-08
2.86024e-08
2.40048e-08
2.52491e-08
2.18527e-08
3.0043e-08
6.71128e-09
1.88707e-07
2.70465e-08
3.17131e-08
2.7291e-08
3.23351e-08
2.8619e-08
3.05351e-08
2.6977e-08
3.08411e-08
2.69899e-08
3.09822e-08
2.58183e-08
3.10163e-08
2.603e-08
2.83616e-08
2.43183e-08
2.76236e-08
2.29986e-08
2.9464e-08
6.57529e-09
1.83425e-07
3.23397e-08
2.75042e-08
3.31668e-08
2.76846e-08
3.21005e-08
2.75671e-08
3.04497e-08
2.7592e-08
3.05766e-08
2.87458e-08
3.11652e-08
2.76554e-08
2.99597e-08
2.62764e-08
2.82649e-08
2.42661e-08
2.52902e-08
2.22511e-08
3.01716e-08
6.686e-09
1.88389e-07
2.73312e-08
3.1906e-08
2.77426e-08
3.20936e-08
2.83428e-08
3.07624e-08
2.71081e-08
3.04903e-08
2.72036e-08
3.0599e-08
2.61549e-08
3.16049e-08
2.65057e-08
3.0614e-08
2.62713e-08
2.81332e-08
2.40646e-08
2.77931e-08
2.25302e-08
3.0093e-08
6.59322e-09
1.84705e-07
3.22133e-08
2.7827e-08
3.34422e-08
2.83104e-08
3.18455e-08
2.83804e-08
3.06467e-08
2.73157e-08
3.05998e-08
2.79628e-08
3.07838e-08
2.78067e-08
2.99698e-08
2.77577e-08
2.99045e-08
2.69739e-08
2.86904e-08
2.42215e-08
2.53362e-08
2.19958e-08
3.01117e-08
6.90662e-09
1.90031e-07
2.7307e-08
3.22034e-08
2.84192e-08
3.24833e-08
2.86026e-08
3.1294e-08
2.72814e-08
3.08983e-08
2.73342e-08
3.10006e-08
2.73021e-08
3.07961e-08
2.64497e-08
3.13239e-08
2.63493e-08
3.04387e-08
2.57027e-08
2.83249e-08
2.44209e-08
2.77924e-08
2.21728e-08
2.96328e-08
6.73132e-09
1.89095e-07
3.25726e-08
2.71515e-08
3.40526e-08
2.86646e-08
3.22862e-08
2.89156e-08
3.06725e-08
2.7836e-08
3.11178e-08
2.80605e-08
3.08368e-08
2.7848e-08
3.1238e-08
2.84965e-08
3.00321e-08
2.84311e-08
2.95679e-08
2.68194e-08
2.84096e-08
2.38842e-08
2.55168e-08
2.20359e-08
2.93218e-08
6.8146e-09
1.91481e-07
2.70357e-08
3.22706e-08
2.89461e-08
3.2764e-08
2.86609e-08
3.15289e-08
2.76254e-08
3.08764e-08
2.7899e-08
3.08659e-08
2.7013e-08
3.08125e-08
2.71566e-08
3.08249e-08
2.69689e-08
2.98368e-08
2.61856e-08
3.08163e-08
2.59418e-08
2.86906e-08
2.45698e-08
2.81702e-08
2.22398e-08
2.93897e-08
6.45919e-09
1.74492e-07
3.23199e-08
2.77606e-08
3.34313e-08
2.89049e-08
3.24987e-08
2.93583e-08
3.05623e-08
2.81972e-08
3.05329e-08
2.79752e-08
3.11695e-08
2.75714e-08
3.11524e-08
2.80404e-08
3.05885e-08
2.90632e-08
2.9857e-08
2.85933e-08
2.97251e-08
2.66473e-08
2.83655e-08
2.43582e-08
2.57703e-08
2.21681e-08
2.99277e-08
7.20533e-09
1.88344e-07
2.73685e-08
3.15419e-08
2.88737e-08
3.32339e-08
2.87939e-08
3.17606e-08
2.78985e-08
3.06942e-08
2.79839e-08
3.15815e-08
2.77415e-08
3.13832e-08
2.68679e-08
3.11042e-08
2.75177e-08
3.03967e-08
2.70651e-08
3.08328e-08
2.7009e-08
3.01598e-08
2.61088e-08
2.86797e-08
2.44426e-08
2.73826e-08
2.23844e-08
2.98652e-08
7.25948e-09
1.81432e-07
3.15877e-08
2.76937e-08
3.31411e-08
2.91407e-08
3.20302e-08
2.93093e-08
3.06361e-08
2.78255e-08
3.09831e-08
2.77445e-08
3.10916e-08
2.78876e-08
3.1286e-08
2.82388e-08
3.08205e-08
2.85042e-08
3.04896e-08
2.85774e-08
2.96377e-08
2.80784e-08
2.99457e-08
2.67126e-08
2.83312e-08
2.41434e-08
2.56131e-08
2.20399e-08
2.97562e-08
7.07905e-09
1.85639e-07
2.67461e-08
3.11038e-08
2.81182e-08
3.28116e-08
2.85744e-08
3.1928e-08
2.82464e-08
3.12147e-08
2.74687e-08
3.08867e-08
2.80136e-08
3.18477e-08
2.76929e-08
3.12579e-08
2.73063e-08
3.044e-08
2.75231e-08
3.03912e-08
2.66443e-08
2.98043e-08
2.7244e-08
2.97199e-08
2.65606e-08
2.82916e-08
2.43811e-08
2.73343e-08
2.21291e-08
2.98932e-08
7.31074e-09
1.8128e-07
3.11786e-08
2.72594e-08
3.31921e-08
2.94362e-08
3.18636e-08
2.92886e-08
3.04513e-08
2.776e-08
3.09181e-08
2.84984e-08
3.12502e-08
2.78316e-08
3.09572e-08
2.82477e-08
3.09597e-08
2.83977e-08
3.0361e-08
2.83009e-08
3.02254e-08
2.91201e-08
2.97498e-08
2.8203e-08
2.95068e-08
2.61162e-08
2.81507e-08
2.41631e-08
2.58687e-08
2.21264e-08
2.91127e-08
7.43718e-09
1.8379e-07
2.65134e-08
3.07714e-08
2.78056e-08
3.17932e-08
2.82435e-08
3.16594e-08
2.8185e-08
3.00039e-08
2.78901e-08
3.00171e-08
2.81883e-08
3.09256e-08
2.83991e-08
3.13088e-08
2.78868e-08
3.0874e-08
2.78433e-08
2.99934e-08
2.73341e-08
2.97826e-08
2.68429e-08
2.91787e-08
2.75037e-08
2.95443e-08
2.64272e-08
2.86099e-08
2.41061e-08
2.7525e-08
2.25716e-08
2.94528e-08
7.30851e-09
1.80583e-07
3.07611e-08
2.67787e-08
3.29529e-08
2.88524e-08
3.17389e-08
2.85855e-08
3.01997e-08
2.80413e-08
3.01185e-08
2.77951e-08
3.02698e-08
2.79515e-08
3.08281e-08
2.84008e-08
3.07556e-08
2.85007e-08
3.07506e-08
2.86181e-08
3.03348e-08
2.82487e-08
2.99109e-08
2.85024e-08
2.94516e-08
2.78159e-08
2.9371e-08
2.57763e-08
2.83386e-08
2.39701e-08
2.59228e-08
2.19052e-08
2.9868e-08
7.53246e-09
1.82673e-07
2.63036e-08
3.0656e-08
2.76773e-08
3.10461e-08
2.84277e-08
3.08799e-08
2.8304e-08
2.96833e-08
2.767e-08
2.98487e-08
2.80205e-08
3.04504e-08
2.78226e-08
3.04785e-08
2.82391e-08
3.08365e-08
2.778e-08
3.03727e-08
2.75724e-08
2.97305e-08
2.73509e-08
2.97001e-08
2.75044e-08
2.95786e-08
2.70741e-08
3.01124e-08
2.62576e-08
2.88099e-08
2.41205e-08
2.74926e-08
2.2402e-08
2.9697e-08
7.84328e-09
1.81019e-07
3.04792e-08
2.64602e-08
3.23901e-08
2.84423e-08
3.16365e-08
2.85485e-08
2.9969e-08
2.79142e-08
2.98466e-08
2.74824e-08
2.96026e-08
2.76797e-08
3.04279e-08
2.81368e-08
3.11752e-08
2.81443e-08
3.05766e-08
2.83019e-08
3.06044e-08
2.83337e-08
3.00095e-08
2.79635e-08
2.97368e-08
2.81265e-08
2.95055e-08
2.74658e-08
2.95426e-08
2.61289e-08
2.83334e-08
2.37796e-08
2.59091e-08
2.19822e-08
2.89097e-08
7.3015e-09
1.81167e-07
2.61421e-08
3.06454e-08
2.7599e-08
3.05834e-08
2.86457e-08
3.03258e-08
2.82063e-08
2.97258e-08
2.74888e-08
2.95206e-08
2.74951e-08
3.00423e-08
2.78438e-08
3.08479e-08
2.82442e-08
3.02591e-08
2.79614e-08
3.09395e-08
2.78203e-08
3.03551e-08
2.77651e-08
2.99482e-08
2.75751e-08
2.9046e-08
2.74854e-08
2.94571e-08
2.66768e-08
2.95083e-08
2.68363e-08
2.84706e-08
2.38056e-08
2.73395e-08
2.22408e-08
3.04145e-08
7.13424e-09
1.80229e-07
3.06857e-08
2.67767e-08
3.21013e-08
2.80557e-08
3.14825e-08
2.83224e-08
3.02417e-08
2.79349e-08
2.9753e-08
2.75605e-08
2.98941e-08
2.7084e-08
2.9737e-08
2.77033e-08
3.04409e-08
2.81276e-08
3.11756e-08
2.77852e-08
3.08579e-08
2.81613e-08
3.00797e-08
2.84201e-08
3.02073e-08
2.84627e-08
2.93333e-08
2.78492e-08
3.00939e-08
2.76076e-08
2.93792e-08
2.54463e-08
2.83475e-08
2.3875e-08
2.60647e-08
2.20565e-08
3.12874e-08
7.37e-09
1.82338e-07
2.62155e-08
3.07515e-08
2.7714e-08
3.05515e-08
2.88099e-08
3.04803e-08
2.86602e-08
3.02758e-08
2.81623e-08
2.96912e-08
2.70997e-08
2.95676e-08
2.71292e-08
3.00608e-08
2.77452e-08
3.05237e-08
2.82066e-08
3.08111e-08
2.78944e-08
3.08205e-08
2.77036e-08
3.02127e-08
2.74324e-08
2.93039e-08
2.73689e-08
2.89314e-08
2.72972e-08
2.96898e-08
2.74249e-08
2.93221e-08
2.61687e-08
2.82802e-08
2.35615e-08
2.74363e-08
2.18043e-08
3.07944e-08
7.42393e-09
1.78929e-07
3.09831e-08
2.67272e-08
3.26775e-08
2.80155e-08
3.20147e-08
2.90355e-08
3.07632e-08
2.82103e-08
3.05219e-08
2.71811e-08
2.97872e-08
2.68331e-08
2.99212e-08
2.68313e-08
2.98438e-08
2.77409e-08
2.98432e-08
2.76617e-08
3.1175e-08
2.8181e-08
3.06969e-08
2.80305e-08
3.01425e-08
2.86836e-08
2.95321e-08
2.85464e-08
2.90188e-08
2.77906e-08
2.97113e-08
2.76409e-08
2.9506e-08
2.64889e-08
2.87963e-08
2.3407e-08
2.60877e-08
2.2138e-08
3.08754e-08
8.04188e-09
1.80184e-07
2.65941e-08
3.12681e-08
2.86574e-08
3.08088e-08
2.9476e-08
3.09644e-08
2.92822e-08
3.05533e-08
2.9218e-08
2.99814e-08
2.79301e-08
2.92864e-08
2.71716e-08
2.95613e-08
2.73768e-08
3.04006e-08
2.7986e-08
3.05927e-08
2.76936e-08
3.10392e-08
2.73843e-08
3.04143e-08
2.7999e-08
3.00724e-08
2.75777e-08
2.911e-08
2.73077e-08
2.92342e-08
2.73616e-08
2.93063e-08
2.73118e-08
2.9034e-08
2.57047e-08
2.87849e-08
2.3627e-08
2.71945e-08
2.21174e-08
2.97469e-08
7.40044e-09
1.76597e-07
3.15098e-08
2.84096e-08
3.26723e-08
2.82838e-08
3.29028e-08
2.96637e-08
3.13344e-08
2.84426e-08
3.08219e-08
2.76234e-08
3.0685e-08
2.69819e-08
3.01161e-08
2.65945e-08
3.01372e-08
2.72667e-08
2.92432e-08
2.73199e-08
3.03308e-08
2.82222e-08
3.11498e-08
2.83605e-08
3.04699e-08
2.81779e-08
3.00126e-08
2.85428e-08
2.94819e-08
2.78722e-08
2.95445e-08
2.76447e-08
2.95793e-08
2.73989e-08
2.91222e-08
2.57302e-08
2.92085e-08
2.3504e-08
2.64997e-08
2.22876e-08
3.0982e-08
7.33076e-09
1.79301e-07
2.73908e-08
3.05754e-08
2.87714e-08
3.15044e-08
3.02242e-08
3.12045e-08
2.9989e-08
3.05168e-08
2.91257e-08
3.01713e-08
2.81703e-08
3.02653e-08
2.74297e-08
2.93162e-08
2.73629e-08
2.92066e-08
2.78507e-08
3.01537e-08
2.80433e-08
3.03208e-08
2.75568e-08
3.08863e-08
2.79866e-08
3.03265e-08
2.8187e-08
2.97409e-08
2.78918e-08
2.91586e-08
2.75802e-08
2.91293e-08
2.76173e-08
2.92238e-08
2.727e-08
2.93156e-08
2.51857e-08
2.9033e-08
2.32895e-08
2.79475e-08
2.20424e-08
3.24134e-08
7.51494e-09
1.76555e-07
3.17113e-08
2.85745e-08
3.28973e-08
2.89928e-08
3.32005e-08
3.00093e-08
3.18164e-08
2.85977e-08
3.11658e-08
2.80373e-08
3.09137e-08
2.75796e-08
3.05168e-08
2.76783e-08
3.04454e-08
2.71727e-08
2.95433e-08
2.73667e-08
2.92097e-08
2.77221e-08
3.03042e-08
2.81863e-08
3.10292e-08
2.87308e-08
3.02649e-08
2.86376e-08
2.95875e-08
2.84708e-08
2.89491e-08
2.76871e-08
2.94868e-08
2.77168e-08
2.93442e-08
2.75049e-08
2.93725e-08
2.55035e-08
2.91209e-08
2.36516e-08
2.6743e-08
2.17362e-08
3.14454e-08
7.78463e-09
1.77569e-07
2.81149e-08
3.05194e-08
2.88178e-08
3.16449e-08
3.05218e-08
3.11622e-08
3.03059e-08
3.03976e-08
2.8995e-08
2.99488e-08
2.84477e-08
3.00019e-08
2.80242e-08
2.99496e-08
2.73034e-08
2.83334e-08
2.76789e-08
2.91852e-08
2.76254e-08
2.98329e-08
2.77696e-08
3.02252e-08
2.82157e-08
3.06685e-08
2.85201e-08
2.98356e-08
2.83822e-08
2.94319e-08
2.79102e-08
2.89489e-08
2.73318e-08
2.94875e-08
2.74069e-08
2.93088e-08
2.69312e-08
2.92859e-08
2.51993e-08
2.91639e-08
2.33164e-08
2.74238e-08
2.23537e-08
3.1097e-08
7.88342e-09
1.76282e-07
3.15782e-08
2.83194e-08
3.29637e-08
2.9074e-08
3.31581e-08
2.99286e-08
3.18986e-08
2.80665e-08
3.15036e-08
2.89858e-08
3.09423e-08
2.7922e-08
3.06417e-08
2.76485e-08
3.01781e-08
2.76353e-08
3.03574e-08
2.75563e-08
2.9239e-08
2.78852e-08
2.9308e-08
2.82975e-08
3.01827e-08
2.84191e-08
3.0696e-08
2.89545e-08
2.98905e-08
2.89668e-08
2.95291e-08
2.81751e-08
2.9103e-08
2.73545e-08
2.94522e-08
2.77193e-08
2.91216e-08
2.70653e-08
2.92042e-08
2.52636e-08
2.86461e-08
2.39429e-08
2.6612e-08
2.21983e-08
3.02669e-08
8.26477e-09
1.76961e-07
2.8162e-08
3.03019e-08
2.86907e-08
3.19663e-08
3.05981e-08
3.10664e-08
3.06031e-08
3.07539e-08
2.88088e-08
2.9693e-08
2.8833e-08
2.97944e-08
2.82049e-08
2.98583e-08
2.81704e-08
2.99485e-08
2.77974e-08
2.8766e-08
2.76583e-08
2.86174e-08
2.73337e-08
2.93684e-08
2.78967e-08
3.02506e-08
2.84757e-08
3.04501e-08
2.88781e-08
2.95097e-08
2.83439e-08
2.92675e-08
2.78456e-08
2.88885e-08
2.72594e-08
2.94984e-08
2.75176e-08
2.94655e-08
2.67136e-08
2.95487e-08
2.52515e-08
2.91221e-08
2.34953e-08
2.73272e-08
2.24417e-08
3.00895e-08
7.6002e-09
1.75956e-07
3.13954e-08
2.75738e-08
3.18211e-08
2.89226e-08
3.303e-08
2.99368e-08
3.17262e-08
2.83851e-08
3.28925e-08
2.88836e-08
3.05779e-08
2.81992e-08
2.99224e-08
2.78914e-08
3.00507e-08
2.77604e-08
3.01174e-08
2.74544e-08
2.99772e-08
2.69745e-08
2.93422e-08
2.7671e-08
2.94085e-08
2.77704e-08
3.00305e-08
2.84422e-08
3.05847e-08
2.90986e-08
2.98079e-08
2.8642e-08
2.91775e-08
2.81842e-08
2.89541e-08
2.72792e-08
2.93702e-08
2.76217e-08
2.94735e-08
2.68869e-08
2.99446e-08
2.56569e-08
2.8979e-08
2.35885e-08
2.72038e-08
2.24926e-08
3.1691e-08
7.4576e-09
1.76153e-07
2.77695e-08
3.03508e-08
2.78787e-08
3.13535e-08
3.02912e-08
3.07726e-08
3.05122e-08
2.99526e-08
2.95189e-08
2.93636e-08
2.9063e-08
2.97979e-08
2.89334e-08
2.97898e-08
2.84438e-08
2.97409e-08
2.83764e-08
2.95993e-08
2.74049e-08
2.865e-08
2.78732e-08
2.88704e-08
2.74832e-08
2.96298e-08
2.79755e-08
3.04258e-08
2.87521e-08
2.99752e-08
2.89877e-08
2.94829e-08
2.83333e-08
2.88989e-08
2.77881e-08
2.92535e-08
2.73072e-08
2.92576e-08
2.74117e-08
2.9523e-08
2.66441e-08
2.99783e-08
2.52536e-08
2.95679e-08
2.37153e-08
2.77551e-08
2.2253e-08
3.27326e-08
7.847e-09
1.74358e-07
3.11095e-08
2.68026e-08
3.14889e-08
2.97203e-08
3.25361e-08
2.99375e-08
3.15599e-08
2.84884e-08
3.16895e-08
2.86908e-08
3.13697e-08
2.81657e-08
2.98637e-08
2.8243e-08
2.97065e-08
2.85145e-08
2.96973e-08
2.77515e-08
3.01029e-08
2.7372e-08
3.01258e-08
2.71493e-08
2.93956e-08
2.76558e-08
2.93068e-08
2.76229e-08
3.00158e-08
2.87237e-08
3.03006e-08
2.90099e-08
2.96349e-08
2.85854e-08
2.91617e-08
2.79213e-08
2.90671e-08
2.72457e-08
2.91491e-08
2.75796e-08
2.94143e-08
2.66856e-08
2.96771e-08
2.5481e-08
2.93348e-08
2.40585e-08
2.68372e-08
2.17511e-08
3.15062e-08
8.11789e-09
1.74179e-07
2.69512e-08
3.0578e-08
2.74036e-08
3.12797e-08
2.98825e-08
3.08143e-08
3.04476e-08
3.02162e-08
2.99109e-08
3.02688e-08
2.91921e-08
2.97709e-08
2.914e-08
2.98907e-08
2.87474e-08
2.93904e-08
2.82002e-08
2.9891e-08
2.80899e-08
2.96656e-08
2.78663e-08
2.90023e-08
2.7497e-08
2.88425e-08
2.7435e-08
2.95292e-08
2.80116e-08
3.01467e-08
2.88594e-08
2.97454e-08
2.88666e-08
2.93521e-08
2.83222e-08
2.90063e-08
2.75487e-08
2.93344e-08
2.73733e-08
2.90655e-08
2.74391e-08
2.97331e-08
2.64195e-08
2.99586e-08
2.55071e-08
2.97364e-08
2.3498e-08
2.81063e-08
2.24855e-08
3.08631e-08
8.52124e-09
1.74116e-07
3.21831e-08
2.68846e-08
3.17469e-08
2.95489e-08
3.19271e-08
3.04665e-08
3.17682e-08
2.86722e-08
3.24566e-08
2.84376e-08
3.11247e-08
2.82993e-08
3.05501e-08
2.80482e-08
2.99074e-08
2.83486e-08
2.92944e-08
2.82672e-08
2.99058e-08
2.75764e-08
2.97113e-08
2.73638e-08
3.00036e-08
2.73459e-08
2.95135e-08
2.70837e-08
2.96281e-08
2.7852e-08
3.00094e-08
2.86634e-08
3.00062e-08
2.87992e-08
2.93435e-08
2.85035e-08
2.93683e-08
2.75551e-08
2.92771e-08
2.72668e-08
2.92016e-08
2.73545e-08
2.97252e-08
2.67882e-08
3.04315e-08
2.53283e-08
2.95405e-08
2.37697e-08
2.73208e-08
2.24741e-08
3.00549e-08
7.87741e-09
1.74591e-07
2.73728e-08
3.07268e-08
2.8566e-08
3.10983e-08
2.94841e-08
3.09363e-08
3.02058e-08
3.03941e-08
2.9919e-08
3.02167e-08
2.92352e-08
3.00438e-08
2.90686e-08
2.9941e-08
2.86656e-08
2.96733e-08
2.79631e-08
2.94823e-08
2.83464e-08
2.97483e-08
2.83684e-08
2.95829e-08
2.80506e-08
2.89714e-08
2.72323e-08
2.90285e-08
2.77865e-08
2.98114e-08
2.77646e-08
2.9894e-08
2.8884e-08
2.95902e-08
2.868e-08
2.92292e-08
2.80854e-08
2.95187e-08
2.74947e-08
2.94661e-08
2.73642e-08
2.91465e-08
2.71322e-08
3.00624e-08
2.66326e-08
3.0711e-08
2.52221e-08
2.98481e-08
2.41057e-08
2.82743e-08
2.28069e-08
3.13371e-08
7.78499e-09
1.73268e-07
3.15204e-08
2.71352e-08
3.09535e-08
2.90784e-08
3.16666e-08
3.09195e-08
3.1784e-08
2.89241e-08
3.20745e-08
2.87611e-08
3.08777e-08
2.80624e-08
3.03854e-08
2.82116e-08
2.97525e-08
2.85321e-08
2.99416e-08
2.82996e-08
2.97595e-08
2.80478e-08
2.98928e-08
2.77617e-08
2.95091e-08
2.75066e-08
2.97679e-08
2.72469e-08
2.929e-08
2.71855e-08
2.93463e-08
2.80615e-08
3.01209e-08
2.85028e-08
2.98302e-08
2.8745e-08
2.922e-08
2.84354e-08
2.98363e-08
2.75454e-08
2.94719e-08
2.72223e-08
2.91649e-08
2.73655e-08
3.00583e-08
2.66206e-08
3.08399e-08
2.56089e-08
2.96607e-08
2.44251e-08
2.75703e-08
2.21843e-08
3.23371e-08
8.06471e-09
1.74019e-07
2.75453e-08
3.06753e-08
2.81138e-08
3.11843e-08
2.93421e-08
3.11786e-08
3.03084e-08
3.10961e-08
3.00033e-08
3.02095e-08
2.9455e-08
3.04343e-08
2.89893e-08
3.03179e-08
2.90932e-08
2.98173e-08
2.83946e-08
2.97105e-08
2.83798e-08
2.94591e-08
2.80622e-08
2.9762e-08
2.82575e-08
2.94436e-08
2.76666e-08
2.91468e-08
2.75765e-08
2.90493e-08
2.76036e-08
2.96198e-08
2.80431e-08
2.99336e-08
2.85751e-08
2.97727e-08
2.83112e-08
2.9384e-08
2.80486e-08
2.97093e-08
2.75124e-08
2.92837e-08
2.7561e-08
2.90836e-08
2.72336e-08
3.0122e-08
2.67609e-08
3.00756e-08
2.56537e-08
2.96668e-08
2.41018e-08
2.86977e-08
2.20713e-08
3.20171e-08
8.20296e-09
1.73489e-07
3.15795e-08
2.75244e-08
3.22429e-08
2.92494e-08
3.17117e-08
3.13958e-08
3.19788e-08
2.91503e-08
3.20403e-08
2.91591e-08
3.19631e-08
2.82266e-08
3.0865e-08
2.879e-08
3.03973e-08
2.87591e-08
2.95884e-08
2.80006e-08
3.05258e-08
2.79071e-08
2.99188e-08
2.8032e-08
2.94704e-08
2.77974e-08
2.95864e-08
2.74976e-08
2.93197e-08
2.74313e-08
2.93705e-08
2.71225e-08
2.94982e-08
2.7925e-08
2.99639e-08
2.84827e-08
3.00847e-08
2.84012e-08
2.93228e-08
2.80385e-08
2.98592e-08
2.75161e-08
2.91281e-08
2.73784e-08
2.91581e-08
2.74039e-08
3.02579e-08
2.67398e-08
3.04068e-08
2.58061e-08
2.98919e-08
2.4157e-08
2.75115e-08
2.19753e-08
3.14728e-08
8.15452e-09
1.74329e-07
2.75309e-08
3.05384e-08
2.86657e-08
3.13971e-08
2.96963e-08
3.15196e-08
3.06691e-08
3.16171e-08
2.96285e-08
3.13191e-08
2.9033e-08
3.04584e-08
2.93549e-08
3.02111e-08
2.90834e-08
2.9809e-08
2.84915e-08
3.02514e-08
2.82689e-08
2.98765e-08
2.83043e-08
2.94037e-08
2.81551e-08
2.92818e-08
2.83584e-08
2.92503e-08
2.7941e-08
2.908e-08
2.73649e-08
2.87501e-08
2.78251e-08
2.89618e-08
2.81269e-08
2.98223e-08
2.82031e-08
3.01012e-08
2.82606e-08
2.95712e-08
2.80266e-08
2.9805e-08
2.74113e-08
2.93195e-08
2.7501e-08
2.9299e-08
2.73861e-08
3.03127e-08
2.65981e-08
3.10455e-08
2.63402e-08
2.9953e-08
2.39672e-08
2.87513e-08
2.25856e-08
3.16962e-08
8.32499e-09
1.71811e-07
3.15519e-08
2.77237e-08
3.17558e-08
2.92116e-08
3.17933e-08
3.15339e-08
3.21932e-08
2.92569e-08
3.21791e-08
2.94123e-08
3.22537e-08
2.87218e-08
3.13666e-08
2.86212e-08
3.1085e-08
2.86739e-08
2.97767e-08
2.8307e-08
2.97691e-08
2.81315e-08
2.97547e-08
2.82318e-08
3.03421e-08
2.77449e-08
2.98826e-08
2.7852e-08
2.92769e-08
2.74913e-08
2.93676e-08
2.73761e-08
2.9187e-08
2.71923e-08
2.9214e-08
2.7961e-08
2.98044e-08
2.83435e-08
3.02218e-08
2.81598e-08
2.97653e-08
2.80674e-08
2.97349e-08
2.73751e-08
2.92236e-08
2.73716e-08
2.92624e-08
2.75325e-08
3.02644e-08
2.67602e-08
3.05834e-08
2.59596e-08
2.9875e-08
2.46756e-08
2.73138e-08
2.21378e-08
3.1257e-08
8.61226e-09
1.73162e-07
2.77054e-08
3.13553e-08
2.86396e-08
3.19258e-08
2.99426e-08
3.16152e-08
3.08972e-08
3.17937e-08
2.94455e-08
3.17643e-08
2.93495e-08
3.15678e-08
2.89272e-08
3.0645e-08
2.90722e-08
2.99663e-08
2.89692e-08
3.03271e-08
2.82988e-08
2.9455e-08
2.83442e-08
2.93359e-08
2.81752e-08
3.00156e-08
2.8025e-08
2.93827e-08
2.83384e-08
2.95269e-08
2.77966e-08
2.90876e-08
2.71752e-08
2.90271e-08
2.75979e-08
2.92114e-08
2.77972e-08
3.02783e-08
2.80424e-08
3.00319e-08
2.80614e-08
2.96371e-08
2.77764e-08
2.99345e-08
2.72767e-08
2.91134e-08
2.72615e-08
2.9409e-08
2.72473e-08
3.02367e-08
2.71556e-08
3.05363e-08
2.66161e-08
2.98523e-08
2.40155e-08
2.83184e-08
2.25606e-08
3.06833e-08
8.89825e-09
1.72245e-07
3.14926e-08
2.84519e-08
3.22235e-08
2.95266e-08
3.17268e-08
3.16186e-08
3.22253e-08
2.96191e-08
3.20905e-08
2.97953e-08
3.23077e-08
2.91876e-08
3.19857e-08
2.921e-08
3.06157e-08
2.91426e-08
3.03438e-08
2.86689e-08
3.05989e-08
2.84238e-08
3.05478e-08
2.83493e-08
3.01665e-08
2.80565e-08
2.98704e-08
2.77822e-08
2.97012e-08
2.75758e-08
2.98656e-08
2.75486e-08
2.92365e-08
2.74737e-08
2.91619e-08
2.74056e-08
2.93606e-08
2.78662e-08
2.9942e-08
2.8253e-08
3.01639e-08
2.83246e-08
2.99798e-08
2.78251e-08
2.984e-08
2.71633e-08
2.92998e-08
2.71831e-08
2.93908e-08
2.73324e-08
3.02208e-08
2.73661e-08
3.03107e-08
2.64388e-08
2.96061e-08
2.491e-08
2.77881e-08
2.24214e-08
2.98057e-08
8.46054e-09
1.71267e-07
2.81857e-08
3.00807e-08
2.93397e-08
3.21123e-08
3.03964e-08
3.15838e-08
3.08497e-08
3.20075e-08
2.96657e-08
3.18501e-08
2.96719e-08
3.20514e-08
2.98577e-08
3.14797e-08
2.95485e-08
3.05924e-08
2.92739e-08
3.01318e-08
2.89547e-08
2.91482e-08
2.7942e-08
2.97951e-08
2.83526e-08
2.95537e-08
2.80427e-08
2.98358e-08
2.77312e-08
2.96092e-08
2.80851e-08
2.94336e-08
2.77348e-08
2.89964e-08
2.71585e-08
2.90431e-08
2.72086e-08
2.92947e-08
2.76276e-08
2.99511e-08
2.84254e-08
3.00664e-08
2.8166e-08
2.966e-08
2.77526e-08
2.99056e-08
2.71282e-08
2.91455e-08
2.72087e-08
2.92744e-08
2.73035e-08
3.02607e-08
2.7177e-08
3.03064e-08
2.68747e-08
2.94071e-08
2.45432e-08
2.80059e-08
2.29052e-08
3.10847e-08
8.3461e-09
1.69918e-07
3.15e-08
2.88778e-08
3.13683e-08
2.94448e-08
3.17685e-08
3.15205e-08
3.20649e-08
2.9711e-08
3.21244e-08
3.02512e-08
3.21154e-08
2.96927e-08
3.14804e-08
2.98118e-08
3.13149e-08
2.92226e-08
3.07142e-08
2.91804e-08
3.03236e-08
2.87005e-08
3.09114e-08
2.82603e-08
3.01308e-08
2.83715e-08
2.96025e-08
2.80534e-08
3.07707e-08
2.75538e-08
2.98333e-08
2.76215e-08
2.94781e-08
2.74149e-08
2.92085e-08
2.7198e-08
2.94007e-08
2.72773e-08
2.91561e-08
2.77335e-08
3.01762e-08
2.82991e-08
2.95274e-08
2.84698e-08
2.99333e-08
2.76232e-08
3.00675e-08
2.71244e-08
2.91699e-08
2.72086e-08
2.95749e-08
2.72411e-08
3.04963e-08
2.77131e-08
3.02305e-08
2.66386e-08
2.92091e-08
2.51404e-08
2.7856e-08
2.23579e-08
3.15286e-08
8.65968e-09
1.70708e-07
2.86562e-08
2.97223e-08
2.94873e-08
3.23927e-08
3.07244e-08
3.13695e-08
3.0663e-08
3.21201e-08
2.94894e-08
3.16266e-08
2.9922e-08
3.18997e-08
2.97106e-08
3.16708e-08
3.01207e-08
3.18312e-08
2.97225e-08
3.01436e-08
2.93909e-08
3.00881e-08
2.84524e-08
2.9556e-08
2.82231e-08
2.96969e-08
2.84107e-08
2.99153e-08
2.77543e-08
2.95464e-08
2.76566e-08
3.02906e-08
2.78711e-08
2.92276e-08
2.75536e-08
2.91305e-08
2.71798e-08
2.92557e-08
2.70799e-08
2.94622e-08
2.77882e-08
2.97127e-08
2.87787e-08
2.99054e-08
2.8062e-08
2.98721e-08
2.76091e-08
2.9898e-08
2.69943e-08
2.90648e-08
2.71314e-08
2.9234e-08
2.72866e-08
3.01723e-08
2.72361e-08
3.01369e-08
2.71228e-08
2.94071e-08
2.46345e-08
2.79116e-08
2.26803e-08
3.1368e-08
8.68679e-09
1.69931e-07
3.11985e-08
2.90368e-08
3.1292e-08
2.98419e-08
3.17786e-08
3.12427e-08
3.18503e-08
2.98695e-08
3.19863e-08
3.05618e-08
3.24351e-08
3.0157e-08
3.20185e-08
2.9858e-08
3.17011e-08
3.00515e-08
3.10396e-08
2.95967e-08
3.03532e-08
2.89215e-08
3.01902e-08
2.88976e-08
3.0087e-08
2.87079e-08
2.98542e-08
2.80942e-08
2.99909e-08
2.78234e-08
3.08388e-08
2.74728e-08
3.01503e-08
2.75973e-08
3.00636e-08
2.74218e-08
2.91985e-08
2.71719e-08
2.92285e-08
2.73629e-08
2.91585e-08
2.79039e-08
2.99503e-08
2.82116e-08
2.95434e-08
2.83504e-08
2.99986e-08
2.74774e-08
2.99169e-08
2.70168e-08
2.93668e-08
2.71467e-08
2.94127e-08
2.74599e-08
3.04646e-08
2.75696e-08
3.00202e-08
2.67762e-08
2.95093e-08
2.50267e-08
2.75579e-08
2.25118e-08
3.08941e-08
9.16741e-09
1.69547e-07
2.87587e-08
2.95833e-08
2.85196e-08
3.24939e-08
3.01434e-08
3.10595e-08
3.02301e-08
3.19116e-08
2.98289e-08
3.15693e-08
3.00738e-08
3.14872e-08
2.95241e-08
3.14279e-08
3.06742e-08
3.13432e-08
3.02136e-08
3.08179e-08
3.01182e-08
3.02857e-08
2.92614e-08
2.97063e-08
2.87638e-08
2.98029e-08
2.82957e-08
2.97656e-08
2.82872e-08
3.00491e-08
2.77702e-08
2.97154e-08
2.78153e-08
2.98426e-08
2.74485e-08
2.91825e-08
2.77359e-08
2.90687e-08
2.72924e-08
2.89515e-08
2.71577e-08
2.96503e-08
2.80677e-08
2.94842e-08
2.86156e-08
2.97358e-08
2.80024e-08
2.99365e-08
2.74462e-08
2.99681e-08
2.6862e-08
2.90332e-08
2.69493e-08
2.9273e-08
2.7403e-08
3.032e-08
2.76858e-08
2.99604e-08
2.71836e-08
2.92324e-08
2.50119e-08
2.76343e-08
2.27516e-08
3.03552e-08
8.75193e-09
1.67631e-07
3.09187e-08
2.83124e-08
3.17873e-08
3.02712e-08
3.1566e-08
3.11299e-08
3.15448e-08
2.96556e-08
3.18392e-08
3.03815e-08
3.18522e-08
2.97602e-08
3.16172e-08
3.03399e-08
3.09803e-08
2.97717e-08
3.13288e-08
2.98284e-08
3.0956e-08
2.9655e-08
3.0296e-08
2.91261e-08
3.03335e-08
2.88421e-08
2.99573e-08
2.84767e-08
3.02111e-08
2.82625e-08
3.02028e-08
2.79971e-08
3.08105e-08
2.75402e-08
3.03469e-08
2.74579e-08
2.99684e-08
2.73235e-08
2.91285e-08
2.72332e-08
2.90592e-08
2.74337e-08
2.94685e-08
2.78877e-08
2.96359e-08
2.82239e-08
2.969e-08
2.80253e-08
3.01156e-08
2.73466e-08
3.00573e-08
2.69267e-08
2.93275e-08
2.70626e-08
2.94549e-08
2.75026e-08
3.03596e-08
2.77989e-08
2.97109e-08
2.65265e-08
2.94972e-08
2.51099e-08
2.74878e-08
2.31041e-08
3.10184e-08
8.62086e-09
1.68847e-07
2.86962e-08
2.96676e-08
2.84383e-08
3.15023e-08
2.9728e-08
3.07974e-08
2.97069e-08
3.15122e-08
2.96943e-08
3.15039e-08
3.01142e-08
3.12391e-08
2.99394e-08
3.12842e-08
2.94885e-08
3.11536e-08
3.03751e-08
3.08529e-08
3.03962e-08
3.06242e-08
2.98925e-08
3.04167e-08
2.90942e-08
2.98262e-08
2.9162e-08
2.96452e-08
2.84406e-08
2.96379e-08
2.82594e-08
2.9825e-08
2.79108e-08
2.96948e-08
2.78753e-08
2.97639e-08
2.75726e-08
2.94412e-08
2.75059e-08
2.91892e-08
2.72046e-08
2.93422e-08
2.71425e-08
2.95817e-08
2.80357e-08
2.95612e-08
2.8302e-08
2.98235e-08
2.79222e-08
3.00425e-08
2.7266e-08
3.0077e-08
2.68471e-08
2.95075e-08
2.68103e-08
2.95979e-08
2.73883e-08
3.03904e-08
2.77216e-08
2.99277e-08
2.7409e-08
2.94032e-08
2.5026e-08
2.73627e-08
2.26371e-08
3.24056e-08
8.76323e-09
1.66498e-07
3.06705e-08
2.77428e-08
3.17989e-08
3.00585e-08
3.15852e-08
3.10551e-08
3.12444e-08
2.96267e-08
3.18426e-08
3.03115e-08
3.16041e-08
2.96485e-08
3.11582e-08
2.97686e-08
3.12518e-08
3.02268e-08
3.10978e-08
3.00929e-08
3.0861e-08
2.97943e-08
3.09707e-08
2.95923e-08
3.01375e-08
2.91276e-08
2.98329e-08
2.89374e-08
2.9903e-08
2.84041e-08
2.98099e-08
2.80385e-08
3.02265e-08
2.76656e-08
3.08294e-08
2.76957e-08
3.0773e-08
2.75739e-08
2.97721e-08
2.72876e-08
2.91687e-08
2.71492e-08
2.89239e-08
2.73379e-08
2.96098e-08
2.77106e-08
2.97187e-08
2.80329e-08
2.95695e-08
2.79826e-08
3.01275e-08
2.73653e-08
3.01546e-08
2.70878e-08
2.94587e-08
2.68905e-08
2.95195e-08
2.72478e-08
3.03927e-08
2.78691e-08
2.98374e-08
2.68409e-08
2.92093e-08
2.54854e-08
2.75286e-08
2.21984e-08
3.20388e-08
8.89806e-09
1.67133e-07
2.86572e-08
2.97246e-08
2.91326e-08
3.1339e-08
2.95714e-08
3.03972e-08
2.92319e-08
3.0961e-08
2.99135e-08
3.10631e-08
2.97183e-08
3.07444e-08
3.02736e-08
3.12236e-08
3.00594e-08
3.10283e-08
3.0086e-08
3.07189e-08
3.05213e-08
3.14353e-08
3.02334e-08
3.06223e-08
2.99883e-08
3.00947e-08
2.92864e-08
2.99502e-08
2.90761e-08
2.97407e-08
2.84592e-08
2.95071e-08
2.82252e-08
2.97769e-08
2.82508e-08
2.97491e-08
2.77896e-08
2.96262e-08
2.74132e-08
2.96986e-08
2.75477e-08
2.95483e-08
2.73825e-08
2.90885e-08
2.73723e-08
2.956e-08
2.78203e-08
2.97686e-08
2.83004e-08
2.95353e-08
2.78631e-08
2.99897e-08
2.73046e-08
3.01675e-08
2.6889e-08
2.96321e-08
2.67751e-08
2.9666e-08
2.74748e-08
3.06187e-08
2.77324e-08
2.97555e-08
2.7352e-08
2.90447e-08
2.48406e-08
2.76061e-08
2.25501e-08
3.23717e-08
9.03871e-09
1.66351e-07
3.05264e-08
2.74275e-08
3.14467e-08
2.94861e-08
3.10078e-08
3.06696e-08
3.07615e-08
2.94526e-08
3.18222e-08
3.04576e-08
3.11525e-08
2.96225e-08
3.09768e-08
2.97623e-08
3.06852e-08
2.96567e-08
3.0551e-08
3.01665e-08
3.07688e-08
3.01073e-08
3.0429e-08
2.99339e-08
3.0318e-08
2.98579e-08
3.01373e-08
2.88652e-08
2.97632e-08
2.87094e-08
2.96267e-08
2.8502e-08
2.98364e-08
2.80424e-08
3.02796e-08
2.78569e-08
3.07149e-08
2.78758e-08
3.05507e-08
2.7367e-08
2.98343e-08
2.73707e-08
2.92059e-08
2.69705e-08
2.92654e-08
2.72192e-08
2.97645e-08
2.75195e-08
2.9809e-08
2.80857e-08
2.9541e-08
2.78754e-08
2.99554e-08
2.74878e-08
3.05371e-08
2.7162e-08
2.95029e-08
2.68083e-08
2.95394e-08
2.73298e-08
3.03833e-08
2.81859e-08
2.96144e-08
2.68299e-08
2.92086e-08
2.52441e-08
2.74107e-08
2.25239e-08
3.1776e-08
9.30767e-09
1.66853e-07
2.86249e-08
3.02108e-08
2.92328e-08
3.10801e-08
2.93774e-08
3.02215e-08
2.91812e-08
3.0718e-08
3.03107e-08
3.07609e-08
2.98443e-08
3.0661e-08
2.97409e-08
3.06006e-08
2.97861e-08
3.06028e-08
3.02679e-08
3.05875e-08
2.98715e-08
3.04254e-08
3.02274e-08
3.07227e-08
3.01982e-08
3.04926e-08
2.98976e-08
3.02951e-08
2.93116e-08
2.96827e-08
2.93079e-08
2.96315e-08
2.83429e-08