/*--------------------------------*- C++ -*----------------------------------*\
| =========                 |                                                 |
| \\      /  F ield         | OpenFOAM: The Open Source CFD Toolbox           |
|  \\    /   O peration     | Version:  2206                                  |
|   \\  /    A nd           | Website:  www.openfoam.com                      |
|    \\/     M anipulation  |                                                 |
\*---------------------------------------------------------------------------*/
FoamFile
{
    version     2.0;
    format      ascii;
    arch        "LSB;label=32;scalar=64";
    class       volScalarField;
    location    "190";
    object      nuTilda;
}
// * * * * * * * * * * * * * * * * * * * * * * * * * * * * * * * * * * * * * //

dimensions      [0 2 -1 0 0 0 0];

internalField   nonuniform List<scalar> 
93840
(
4.77587e-07
1.76987e-07
4.77036e-07
4.0567e-07
1.6221e-07
4.64732e-07
3.45913e-07
4.2572e-07
2.28994e-07
4.49456e-07
4.25023e-07
3.78596e-07
4.21833e-07
2.95009e-07
4.47697e-07
3.84011e-07
4.05276e-07
3.83134e-07
4.1117e-07
3.03419e-07
4.26906e-07
4.01069e-07
3.94878e-07
4.06582e-07
3.79715e-07
4.15234e-07
3.37182e-07
4.48347e-07
3.96727e-07
4.01152e-07
3.92454e-07
4.09565e-07
3.90096e-07
4.11818e-07
3.17522e-07
4.2619e-07
4.00039e-07
3.89808e-07
4.01261e-07
3.95267e-07
4.03988e-07
3.91229e-07
4.10311e-07
3.23252e-07
4.4722e-07
3.971e-07
4.07653e-07
3.96978e-07
3.99276e-07
3.96236e-07
4.0348e-07
3.89814e-07
4.10004e-07
3.18328e-07
4.32232e-07
3.99636e-07
3.93012e-07
4.0202e-07
3.95603e-07
4.00744e-07
3.97383e-07
3.99364e-07
3.93544e-07
4.08041e-07
3.30816e-07
4.48365e-07
3.96326e-07
4.01175e-07
3.94374e-07
4.02728e-07
3.98146e-07
3.99341e-07
3.97862e-07
4.02591e-07
3.90747e-07
4.02084e-07
3.24424e-07
4.30541e-07
3.99574e-07
3.94378e-07
4.00377e-07
3.97284e-07
3.99872e-07
3.99117e-07
4.0104e-07
3.94886e-07
4.02525e-07
3.95493e-07
4.04511e-07
3.27103e-07
4.42282e-07
3.9803e-07
4.00376e-07
3.95403e-07
3.98454e-07
3.97444e-07
3.98805e-07
3.98506e-07
4.01947e-07
3.98474e-07
4.01791e-07
3.94709e-07
4.08883e-07
3.24877e-07
4.35233e-07
3.98221e-07
3.97261e-07
4.00242e-07
3.98935e-07
3.98983e-07
3.98631e-07
3.9907e-07
3.97594e-07
3.99098e-07
3.97197e-07
3.99853e-07
3.92648e-07
4.08036e-07
3.28712e-07
4.41926e-07
3.9826e-07
3.99242e-07
3.97373e-07
3.98416e-07
3.98234e-07
3.98753e-07
3.98782e-07
3.99887e-07
3.97791e-07
4.01325e-07
3.97765e-07
4.02032e-07
3.92771e-07
4.04418e-07
3.24835e-07
4.34914e-07
3.98433e-07
3.96858e-07
3.99919e-07
3.98469e-07
3.98986e-07
3.98483e-07
3.98544e-07
3.98407e-07
4.00328e-07
3.97934e-07
3.99772e-07
3.97594e-07
3.99845e-07
3.95163e-07
4.07787e-07
3.27997e-07
4.39776e-07
3.98203e-07
3.99352e-07
3.96355e-07
3.98534e-07
3.97128e-07
3.98577e-07
3.98451e-07
3.99035e-07
3.97544e-07
3.99926e-07
3.97917e-07
4.00194e-07
3.97302e-07
4.02431e-07
3.93313e-07
4.08398e-07
3.27591e-07
4.34844e-07
3.9822e-07
3.97927e-07
3.99627e-07
3.97581e-07
3.99684e-07
3.98498e-07
3.99084e-07
3.97871e-07
3.99779e-07
3.98531e-07
3.99619e-07
3.98051e-07
4.00608e-07
3.97855e-07
3.99432e-07
3.92767e-07
4.07226e-07
3.30541e-07
4.38618e-07
3.98297e-07
3.98576e-07
3.97399e-07
3.99646e-07
3.97832e-07
3.98313e-07
3.98412e-07
3.99824e-07
3.98281e-07
3.99243e-07
3.97563e-07
4.00067e-07
3.98143e-07
4.00824e-07
3.97921e-07
4.02835e-07
3.94642e-07
4.05204e-07
3.28695e-07
4.34264e-07
3.98387e-07
3.97987e-07
3.98833e-07
3.98046e-07
3.9898e-07
3.98562e-07
3.98839e-07
3.97903e-07
3.99493e-07
3.9849e-07
4.00191e-07
3.97741e-07
4.00346e-07
3.97888e-07
3.99604e-07
3.97036e-07
3.99397e-07
3.94828e-07
4.07634e-07
3.29837e-07
4.38701e-07
3.98172e-07
3.98647e-07
3.97845e-07
3.98566e-07
3.97676e-07
3.98403e-07
3.98565e-07
3.99199e-07
3.97811e-07
3.98977e-07
3.97485e-07
4.00493e-07
3.9816e-07
3.99813e-07
3.96398e-07
4.00784e-07
3.97084e-07
4.02267e-07
3.92519e-07
4.07354e-07
3.28543e-07
4.35733e-07
3.98552e-07
3.97916e-07
3.98505e-07
3.98358e-07
3.9876e-07
3.98541e-07
3.98841e-07
3.974e-07
3.99945e-07
3.9771e-07
4.00323e-07
3.96965e-07
3.99781e-07
3.98165e-07
4.01243e-07
3.9861e-07
4.01348e-07
3.97243e-07
4.00192e-07
3.9447e-07
4.07287e-07
3.3208e-07
4.40515e-07
3.98016e-07
3.98781e-07
3.98385e-07
3.99067e-07
3.98157e-07
3.984e-07
3.98544e-07
4.00328e-07
3.96383e-07
3.99445e-07
3.97489e-07
4.00338e-07
3.97522e-07
3.99102e-07
3.96831e-07
4.00407e-07
3.96167e-07
4.00796e-07
3.97331e-07
4.02628e-07
3.92305e-07
4.05524e-07
3.29799e-07
4.39942e-07
3.98284e-07
3.97748e-07
3.98469e-07
3.9751e-07
3.98713e-07
3.98536e-07
3.98683e-07
3.97987e-07
4.01421e-07
3.98624e-07
4.00662e-07
3.97245e-07
4.00634e-07
3.97892e-07
4.00943e-07
3.98557e-07
4.00736e-07
3.98865e-07
4.00461e-07
3.9619e-07
4.00257e-07
3.95099e-07
4.04285e-07
3.30462e-07
4.42194e-07
3.98058e-07
3.98747e-07
3.98213e-07
3.98928e-07
3.9786e-07
3.98505e-07
3.98354e-07
3.98707e-07
3.97131e-07
3.98544e-07
3.97075e-07
3.9934e-07
3.96999e-07
3.99695e-07
3.97504e-07
3.98686e-07
3.9633e-07
4.00236e-07
3.96577e-07
4.00827e-07
3.97999e-07
4.03594e-07
3.93461e-07
4.04463e-07
3.25795e-07
4.27702e-07
3.98562e-07
3.98307e-07
3.98582e-07
3.97506e-07
3.98619e-07
3.98324e-07
3.98457e-07
3.9835e-07
3.9919e-07
3.98513e-07
3.99926e-07
3.98298e-07
4.00781e-07
3.97236e-07
4.00114e-07
3.99141e-07
4.00326e-07
3.98961e-07
4.00202e-07
3.99415e-07
3.99506e-07
3.97245e-07
4.00891e-07
3.96022e-07
4.06288e-07
3.3457e-07
4.40022e-07
3.9816e-07
3.9851e-07
3.98331e-07
3.99166e-07
3.98502e-07
3.98817e-07
3.98351e-07
3.99253e-07
3.97753e-07
3.99846e-07
3.97076e-07
3.9959e-07
3.9727e-07
4.00034e-07
3.9745e-07
3.99027e-07
3.97344e-07
3.99826e-07
3.98096e-07
4.00052e-07
3.96871e-07
4.00434e-07
3.98067e-07
4.01124e-07
3.938e-07
4.05955e-07
3.34882e-07
4.34346e-07
3.98387e-07
3.98346e-07
3.98772e-07
3.97943e-07
3.98569e-07
3.9808e-07
3.98684e-07
3.9738e-07
3.99904e-07
3.97186e-07
4.0001e-07
3.9779e-07
3.99933e-07
3.98151e-07
4.01055e-07
3.98111e-07
4.00277e-07
3.98522e-07
3.99684e-07
3.97457e-07
4.00907e-07
3.98626e-07
4.00268e-07
3.97684e-07
3.99967e-07
3.95197e-07
4.05398e-07
3.32355e-07
4.38264e-07
3.98399e-07
3.98528e-07
3.97773e-07
3.98933e-07
3.98446e-07
3.9894e-07
3.98632e-07
4.00419e-07
3.96001e-07
4.00084e-07
3.97209e-07
3.99903e-07
3.9757e-07
3.99367e-07
3.97493e-07
3.99229e-07
3.97953e-07
3.99138e-07
3.97845e-07
3.99596e-07
3.97401e-07
3.99621e-07
3.97812e-07
3.99983e-07
3.98526e-07
4.0124e-07
3.93099e-07
4.0574e-07
3.34676e-07
4.34811e-07
3.98819e-07
3.98182e-07
3.99185e-07
3.98566e-07
3.98736e-07
3.98083e-07
3.98495e-07
3.98081e-07
4.01696e-07
3.98436e-07
4.00249e-07
3.97447e-07
3.99699e-07
3.98257e-07
4.00722e-07
3.97871e-07
4.004e-07
3.98401e-07
4.00107e-07
3.99983e-07
4.00137e-07
3.98973e-07
3.99947e-07
3.98645e-07
3.99897e-07
3.97277e-07
4.00785e-07
3.95878e-07
4.02726e-07
3.35817e-07
4.37332e-07
3.9787e-07
3.98775e-07
3.97478e-07
3.98609e-07
3.98327e-07
3.9964e-07
3.9864e-07
3.98934e-07
3.97006e-07
3.98397e-07
3.97227e-07
4.00295e-07
3.97687e-07
3.9908e-07
3.97896e-07
3.99091e-07
3.97788e-07
3.99247e-07
3.96996e-07
3.98773e-07
3.96538e-07
3.98777e-07
3.97596e-07
3.99493e-07
3.97848e-07
4.00492e-07
3.97838e-07
4.01721e-07
3.95311e-07
4.03812e-07
3.33688e-07
4.34928e-07
3.98528e-07
3.97893e-07
3.99002e-07
3.98525e-07
3.98424e-07
3.96699e-07
3.98396e-07
3.98562e-07
3.99117e-07
3.98568e-07
4.00323e-07
3.97507e-07
3.99271e-07
3.98082e-07
3.9976e-07
3.98566e-07
3.99981e-07
3.98379e-07
4.00698e-07
3.99011e-07
3.99752e-07
3.98958e-07
3.99643e-07
3.99173e-07
3.9966e-07
3.97519e-07
3.99798e-07
3.97071e-07
4.00531e-07
3.95159e-07
4.05091e-07
3.3596e-07
4.37065e-07
3.98126e-07
3.98604e-07
3.98108e-07
3.98659e-07
3.98408e-07
3.99244e-07
3.98781e-07
3.98995e-07
3.98055e-07
3.99679e-07
3.97618e-07
4.00431e-07
3.97865e-07
3.99252e-07
3.97898e-07
3.98828e-07
3.97508e-07
3.99412e-07
3.97975e-07
3.99118e-07
3.96293e-07
3.99784e-07
3.98103e-07
3.9975e-07
3.97186e-07
4.00312e-07
3.98371e-07
4.00899e-07
3.98036e-07
4.01944e-07
3.94328e-07
4.04179e-07
3.38719e-07
4.35857e-07
3.98375e-07
3.97618e-07
3.98437e-07
3.98394e-07
3.9838e-07
3.98497e-07
3.98355e-07
3.98513e-07
3.99409e-07
3.97938e-07
3.99357e-07
3.97266e-07
3.99864e-07
3.98097e-07
4.00607e-07
3.98378e-07
3.99583e-07
3.98414e-07
3.99783e-07
3.98113e-07
4.00432e-07
3.98034e-07
4.00349e-07
3.98503e-07
3.99326e-07
3.99373e-07
3.99511e-07
3.97797e-07
4.00148e-07
3.97207e-07
4.01287e-07
3.957e-07
4.00368e-07
3.36803e-07
4.36245e-07
3.97984e-07
3.99202e-07
3.98408e-07
3.98408e-07
3.98311e-07
3.98331e-07
3.98578e-07
3.98965e-07
3.9823e-07
3.99671e-07
3.97761e-07
4.00086e-07
3.97797e-07
3.99803e-07
3.97821e-07
3.98531e-07
3.98195e-07
3.99693e-07
3.98077e-07
3.99757e-07
3.9784e-07
4.00148e-07
3.97217e-07
3.98184e-07
3.97923e-07
3.99188e-07
3.97364e-07
3.99965e-07
3.97931e-07
4.00036e-07
3.98165e-07
4.01334e-07
3.94415e-07
4.02542e-07
3.3395e-07
4.35782e-07
3.98413e-07
3.97932e-07
3.98624e-07
3.98334e-07
3.98477e-07
3.98329e-07
3.98522e-07
3.98304e-07
3.99199e-07
3.98165e-07
3.9962e-07
3.97342e-07
4.0006e-07
3.97907e-07
4.00259e-07
3.98209e-07
3.99691e-07
3.98124e-07
3.99389e-07
3.9835e-07
3.9898e-07
3.98428e-07
4.00934e-07
4.0029e-07
3.9979e-07
3.99011e-07
3.99713e-07
3.98932e-07
3.99543e-07
3.98072e-07
4.00218e-07
3.98283e-07
4.01545e-07
3.97201e-07
4.06174e-07
3.35331e-07
4.37969e-07
3.98332e-07
3.98787e-07
3.98532e-07
3.98706e-07
3.98459e-07
3.98611e-07
3.98692e-07
3.98984e-07
3.98045e-07
3.99395e-07
3.97827e-07
4.00277e-07
3.98049e-07
3.99357e-07
3.97522e-07
3.99509e-07
3.98816e-07
3.99206e-07
3.98538e-07
3.98899e-07
3.98007e-07
3.99404e-07
3.96954e-07
3.98704e-07
3.968e-07
3.99004e-07
3.98026e-07
3.98687e-07
3.97802e-07
3.99767e-07
3.98132e-07
3.98946e-07
3.97486e-07
4.01617e-07
3.93307e-07
4.04938e-07
3.35324e-07
4.35271e-07
3.98623e-07
3.98006e-07
3.98888e-07
3.9794e-07
3.9864e-07
3.98776e-07
3.98897e-07
3.98814e-07
3.99933e-07
3.97863e-07
3.99757e-07
3.97914e-07
4.00095e-07
3.97711e-07
4.00613e-07
3.98245e-07
3.99102e-07
3.97845e-07
3.99384e-07
3.98641e-07
3.99749e-07
3.98531e-07
3.99712e-07
3.99389e-07
3.99554e-07
4.00061e-07
3.99101e-07
3.98962e-07
4.00067e-07
3.98696e-07
4.00071e-07
3.99567e-07
4.00639e-07
3.97124e-07
4.00438e-07
3.95674e-07
4.05428e-07
3.41049e-07
4.36624e-07
3.98394e-07
3.99213e-07
3.9852e-07
3.99447e-07
3.98837e-07
3.98958e-07
3.9898e-07
3.98891e-07
3.98489e-07
3.99625e-07
3.98037e-07
3.99511e-07
3.97556e-07
4.00025e-07
3.97628e-07
3.99823e-07
3.98401e-07
3.99298e-07
3.98292e-07
3.99546e-07
3.97416e-07
3.99086e-07
3.98141e-07
3.99345e-07
3.97138e-07
3.98629e-07
3.97244e-07
3.98768e-07
3.98115e-07
3.98444e-07
3.98137e-07
3.98976e-07
3.97814e-07
4.00083e-07
3.98075e-07
4.00511e-07
3.9402e-07
4.00805e-07
3.38058e-07
4.33678e-07
3.98578e-07
3.98505e-07
3.99145e-07
3.984e-07
3.98906e-07
3.98984e-07
3.98834e-07
3.98695e-07
3.99185e-07
3.98051e-07
3.99749e-07
3.98013e-07
4.00086e-07
3.97914e-07
4.00192e-07
3.98328e-07
3.99396e-07
3.98163e-07
4.00201e-07
3.98174e-07
3.99677e-07
3.98922e-07
3.99377e-07
3.98522e-07
3.99573e-07
3.99767e-07
4.00373e-07
3.9877e-07
3.99789e-07
3.98713e-07
3.99833e-07
3.98802e-07
3.9914e-07
3.98966e-07
4.00267e-07
3.97606e-07
4.00886e-07
3.96462e-07
4.0246e-07
3.3589e-07
4.3641e-07
3.9832e-07
3.98666e-07
3.98079e-07
3.99231e-07
3.99084e-07
3.98947e-07
3.98579e-07
3.98554e-07
3.9849e-07
3.99657e-07
3.97986e-07
4.00118e-07
3.98026e-07
4.00331e-07
3.97715e-07
3.99299e-07
3.98417e-07
3.99144e-07
3.9885e-07
3.99131e-07
3.97518e-07
3.99243e-07
3.97525e-07
3.99329e-07
3.98343e-07
3.99122e-07
3.97537e-07
3.99745e-07
3.98281e-07
3.98391e-07
3.9869e-07
3.98924e-07
3.98237e-07
3.99402e-07
3.97371e-07
4.00565e-07
3.97049e-07
4.02197e-07
3.95253e-07
4.08001e-07
3.36891e-07
4.34306e-07
3.98627e-07
3.98469e-07
3.98785e-07
3.98248e-07
3.9868e-07
3.9859e-07
3.98446e-07
3.9857e-07
3.99178e-07
3.97938e-07
3.99911e-07
3.97983e-07
4.00102e-07
3.99192e-07
4.00788e-07
3.98162e-07
3.99883e-07
3.98438e-07
3.99049e-07
3.98558e-07
4.00449e-07
3.98353e-07
4.00046e-07
3.98771e-07
3.99709e-07
3.98421e-07
3.9908e-07
3.98615e-07
3.99025e-07
3.99024e-07
3.99684e-07
3.98456e-07
3.99377e-07
3.9908e-07
3.99188e-07
3.98615e-07
4.00125e-07
3.97628e-07
4.01285e-07
3.9403e-07
4.05268e-07
3.38649e-07
4.35534e-07
3.98177e-07
3.98627e-07
3.98525e-07
3.99144e-07
3.98451e-07
3.98379e-07
3.98462e-07
3.98951e-07
3.98421e-07
3.99467e-07
3.97553e-07
3.9951e-07
3.98191e-07
3.98915e-07
3.97778e-07
3.97306e-07
3.985e-07
3.9959e-07
3.9798e-07
3.99273e-07
3.98233e-07
3.99223e-07
3.98066e-07
3.99206e-07
3.98287e-07
3.98854e-07
3.98586e-07
3.98959e-07
3.98536e-07
3.99012e-07
3.9789e-07
3.9894e-07
3.98423e-07
3.99407e-07
3.9765e-07
3.99777e-07
3.97534e-07
4.00229e-07
3.97089e-07
4.00368e-07
3.95201e-07
4.04759e-07
3.38883e-07
4.34662e-07
3.98426e-07
3.97961e-07
3.98632e-07
3.9745e-07
3.98307e-07
3.98395e-07
3.98856e-07
3.9761e-07
3.99732e-07
3.98084e-07
4.0004e-07
3.97544e-07
3.99714e-07
3.98738e-07
4.00161e-07
3.98776e-07
4.01269e-07
3.98954e-07
3.99847e-07
3.99836e-07
3.99535e-07
3.9907e-07
4.00258e-07
3.98598e-07
3.99624e-07
3.98638e-07
3.99576e-07
3.98739e-07
3.99697e-07
3.98658e-07
3.99855e-07
3.98503e-07
3.99084e-07
3.9851e-07
3.99052e-07
3.98917e-07
3.99654e-07
3.98451e-07
3.99769e-07
3.98379e-07
4.00303e-07
3.95159e-07
4.02327e-07
3.42052e-07
4.35527e-07
3.97395e-07
3.98732e-07
3.98629e-07
3.99837e-07
3.9856e-07
3.98715e-07
3.98719e-07
4.00113e-07
3.95295e-07
3.99608e-07
3.97973e-07
4.00236e-07
3.97967e-07
3.99251e-07
3.98262e-07
3.99455e-07
3.98941e-07
3.98661e-07
3.98477e-07
3.97681e-07
3.97961e-07
3.9861e-07
3.98128e-07
3.98909e-07
3.98098e-07
3.99058e-07
3.98237e-07
3.98701e-07
3.97959e-07
3.9929e-07
3.97964e-07
3.99032e-07
3.9839e-07
3.9927e-07
3.98614e-07
3.99897e-07
3.97994e-07
3.99541e-07
3.98064e-07
4.00211e-07
3.97496e-07
4.00254e-07
3.95076e-07
4.01002e-07
3.38195e-07
4.34919e-07
3.99663e-07
3.97624e-07
3.98143e-07
3.9775e-07
3.98697e-07
3.98693e-07
3.9863e-07
3.9849e-07
4.02918e-07
3.99237e-07
3.99529e-07
3.97909e-07
3.99759e-07
3.98017e-07
4.00107e-07
3.99007e-07
4.00291e-07
3.98286e-07
4.00145e-07
3.98006e-07
4.0062e-07
3.98801e-07
3.9979e-07
3.98122e-07
3.99599e-07
3.98603e-07
4.00254e-07
3.98299e-07
4.00181e-07
3.98502e-07
3.99305e-07
3.99268e-07
3.9904e-07
3.98855e-07
3.99102e-07
3.98503e-07
3.9925e-07
3.9877e-07
3.99167e-07
3.98544e-07
4.00376e-07
3.97287e-07
4.01232e-07
3.96504e-07
4.04379e-07
3.35587e-07
4.3545e-07
3.97657e-07
3.99472e-07
3.98698e-07
3.98577e-07
3.98738e-07
3.98675e-07
3.98644e-07
3.98554e-07
3.96926e-07
3.98004e-07
3.97328e-07
3.99628e-07
3.98636e-07
3.99658e-07
3.9857e-07
3.98933e-07
3.9889e-07
3.9892e-07
3.99171e-07
3.98129e-07
3.99978e-07
3.98139e-07
3.98477e-07
3.99463e-07
3.98727e-07
3.99264e-07
3.98351e-07
3.98592e-07
3.97988e-07
3.99199e-07
3.97885e-07
3.98594e-07
3.98159e-07
3.99376e-07
3.98348e-07
3.99024e-07
3.98379e-07
3.99135e-07
3.98156e-07
3.9967e-07
3.97786e-07
4.00385e-07
3.9738e-07
4.00748e-07
3.95404e-07
4.08486e-07
3.38419e-07
4.34197e-07
3.98604e-07
3.9796e-07
3.98856e-07
3.98561e-07
3.98752e-07
3.98568e-07
3.98548e-07
3.98647e-07
3.98603e-07
3.98816e-07
4.00642e-07
3.98483e-07
3.9937e-07
3.9798e-07
3.99552e-07
3.98306e-07
3.9928e-07
3.9877e-07
4.00406e-07
3.98293e-07
4.0021e-07
3.98254e-07
4.00456e-07
3.99091e-07
3.9963e-07
3.98127e-07
3.99693e-07
3.984e-07
4.00028e-07
3.98674e-07
4.00033e-07
3.98794e-07
3.9978e-07
3.98875e-07
3.99329e-07
3.98266e-07
3.99326e-07
3.98617e-07
3.9926e-07
3.98389e-07
3.99402e-07
3.98099e-07
4.00477e-07
3.97794e-07
3.99826e-07
3.93785e-07
4.05063e-07
3.40628e-07
4.34333e-07
3.97482e-07
3.98954e-07
3.97896e-07
3.9852e-07
3.98645e-07
3.98534e-07
3.98611e-07
3.98715e-07
3.98309e-07
3.99549e-07
3.97899e-07
3.99638e-07
3.97401e-07
4.00009e-07
3.98592e-07
3.99522e-07
3.97693e-07
3.99826e-07
3.9846e-07
3.99385e-07
3.98922e-07
3.98713e-07
3.98475e-07
3.98384e-07
3.98049e-07
3.99046e-07
3.98565e-07
3.99325e-07
3.9846e-07
3.98563e-07
3.98167e-07
3.99347e-07
3.98047e-07
3.98808e-07
3.98027e-07
3.99626e-07
3.98612e-07
3.98737e-07
3.98602e-07
3.99486e-07
3.98067e-07
3.99339e-07
3.97484e-07
4.00768e-07
3.96886e-07
4.011e-07
3.95321e-07
4.03264e-07
3.43596e-07
4.34554e-07
3.99836e-07
3.97941e-07
3.98497e-07
3.98756e-07
3.98735e-07
3.98635e-07
3.9852e-07
3.9861e-07
3.99181e-07
3.98288e-07
3.99405e-07
3.98223e-07
4.008e-07
3.98426e-07
3.99773e-07
3.98775e-07
4.00322e-07
3.98633e-07
3.99157e-07
3.98396e-07
3.9992e-07
3.98342e-07
3.99757e-07
3.9918e-07
3.99956e-07
3.98098e-07
3.9992e-07
3.98467e-07
3.99486e-07
3.98386e-07
3.99911e-07
3.98394e-07
3.99702e-07
3.98982e-07
3.99298e-07
3.98333e-07
3.99119e-07
3.98101e-07
3.99181e-07
3.98273e-07
3.99509e-07
3.98605e-07
3.99819e-07
3.97413e-07
4.00398e-07
3.96965e-07
4.00512e-07
3.95965e-07
3.99889e-07
3.40256e-07
4.35221e-07
3.97307e-07
3.99197e-07
3.992e-07
3.98666e-07
3.98602e-07
3.98671e-07
3.9869e-07
3.98586e-07
3.98523e-07
3.99482e-07
3.98219e-07
3.9976e-07
3.97782e-07
3.99719e-07
3.98572e-07
3.99638e-07
3.97074e-07
3.9874e-07
3.98987e-07
3.99388e-07
3.98591e-07
3.99594e-07
3.99117e-07
3.98665e-07
3.98439e-07
3.99213e-07
3.99417e-07
3.9905e-07
3.98096e-07
3.98798e-07
3.98899e-07
3.9872e-07
3.98423e-07
3.99304e-07
3.97792e-07
3.99092e-07
3.98336e-07
3.99555e-07
3.98523e-07
3.99083e-07
3.98444e-07
3.99566e-07
3.98379e-07
4.00148e-07
3.97855e-07
4.00849e-07
3.9811e-07
4.00781e-07
3.96391e-07
4.02384e-07
3.37846e-07
4.34375e-07
3.99064e-07
3.97496e-07
3.98009e-07
3.98221e-07
3.98599e-07
3.98553e-07
3.9862e-07
3.98555e-07
3.98843e-07
3.98347e-07
3.992e-07
3.98168e-07
3.99945e-07
3.98117e-07
3.99825e-07
3.98759e-07
4.00433e-07
3.99317e-07
3.99987e-07
3.9835e-07
4.00264e-07
3.98454e-07
3.9961e-07
3.98897e-07
3.99916e-07
3.98353e-07
3.99756e-07
3.97724e-07
3.99621e-07
3.98973e-07
3.9982e-07
3.98351e-07
3.99594e-07
3.99059e-07
3.991e-07
3.99422e-07
3.99479e-07
3.98681e-07
3.99358e-07
3.9808e-07
3.99278e-07
3.98449e-07
3.99273e-07
3.97974e-07
3.99811e-07
3.98239e-07
3.99629e-07
3.98274e-07
4.0115e-07
3.96128e-07
4.06467e-07
3.39888e-07
4.35368e-07
3.97445e-07
3.99295e-07
3.97535e-07
3.98584e-07
3.98607e-07
3.98537e-07
3.98536e-07
3.9881e-07
3.98509e-07
3.99142e-07
3.9832e-07
3.99863e-07
3.97651e-07
3.99979e-07
3.98304e-07
3.99326e-07
3.98569e-07
3.99242e-07
3.97941e-07
3.99358e-07
3.9781e-07
3.99497e-07
3.98352e-07
3.99425e-07
3.98382e-07
3.98761e-07
3.9907e-07
3.99099e-07
3.98741e-07
3.9923e-07
3.98178e-07
3.99177e-07
3.98264e-07
3.99212e-07
3.97932e-07
3.99211e-07
3.98305e-07
3.98842e-07
3.984e-07
3.99391e-07
3.9873e-07
3.98843e-07
3.98358e-07
3.9962e-07
3.98386e-07
3.99525e-07
3.9828e-07
3.99695e-07
3.97288e-07
4.01197e-07
3.93371e-07
4.05906e-07
3.40076e-07
4.35225e-07
3.99413e-07
3.98301e-07
4.00072e-07
3.98696e-07
3.98592e-07
3.98624e-07
3.98581e-07
3.98583e-07
3.9907e-07
3.98476e-07
3.99612e-07
3.98351e-07
3.9995e-07
3.98281e-07
4.0086e-07
3.98874e-07
3.99206e-07
3.98318e-07
4.01097e-07
3.98406e-07
3.99952e-07
3.98973e-07
3.99427e-07
3.98861e-07
4.00233e-07
3.98407e-07
3.99817e-07
3.98509e-07
4.0034e-07
3.98366e-07
3.99849e-07
3.98527e-07
3.99313e-07
3.98595e-07
3.99822e-07
3.98697e-07
3.98971e-07
3.98693e-07
3.99247e-07
3.98404e-07
3.98976e-07
3.98537e-07
3.98984e-07
3.98209e-07
3.99032e-07
3.98393e-07
3.99575e-07
3.97926e-07
4.0042e-07
3.96993e-07
4.0166e-07
3.9455e-07
4.04654e-07
3.38794e-07
4.36313e-07
3.97244e-07
3.98636e-07
3.97859e-07
3.98604e-07
3.985e-07
3.98536e-07
3.98547e-07
3.98894e-07
3.98383e-07
3.99664e-07
3.97997e-07
3.9965e-07
3.98613e-07
3.99359e-07
3.97282e-07
3.99372e-07
3.9882e-07
4.00241e-07
3.98049e-07
3.99529e-07
3.98857e-07
3.98137e-07
3.98957e-07
3.98537e-07
3.98753e-07
3.98759e-07
3.98752e-07
3.99052e-07
3.98363e-07
3.98456e-07
3.98842e-07
3.98422e-07
3.98298e-07
3.99041e-07
3.97998e-07
3.99317e-07
3.98537e-07
3.99384e-07
3.98423e-07
3.99595e-07
3.98412e-07
3.99466e-07
3.98684e-07
3.99121e-07
3.98565e-07
3.99416e-07
3.98046e-07
3.9996e-07
3.98378e-07
3.99858e-07
3.97013e-07
4.01772e-07
3.94964e-07
4.06039e-07
3.39324e-07
4.34451e-07
3.99097e-07
3.96526e-07
3.98735e-07
3.97827e-07
3.98492e-07
3.98525e-07
3.98713e-07
3.98606e-07
3.99146e-07
3.98146e-07
4.00371e-07
3.9819e-07
3.99701e-07
3.98365e-07
4.01219e-07
3.98683e-07
3.98708e-07
3.98572e-07
3.99578e-07
3.98855e-07
3.99231e-07
3.99372e-07
4.0046e-07
3.98067e-07
4.00353e-07
3.98284e-07
3.99132e-07
3.98736e-07
3.99954e-07
3.98804e-07
3.99577e-07
3.98573e-07
3.99698e-07
3.98789e-07
3.99265e-07
3.98693e-07
3.9938e-07
3.98316e-07
3.99388e-07
3.9883e-07
3.98774e-07
3.98535e-07
3.99073e-07
3.98508e-07
3.99099e-07
3.98648e-07
3.99112e-07
3.98154e-07
3.99473e-07
3.98139e-07
4.00539e-07
3.97696e-07
4.00713e-07
3.9427e-07
4.05105e-07
3.41726e-07
4.36047e-07
3.97627e-07
4.01269e-07
3.96506e-07
3.98872e-07
3.98536e-07
3.98604e-07
3.98637e-07
3.98659e-07
3.98489e-07
3.99813e-07
3.97685e-07
4.00708e-07
3.97411e-07
3.99865e-07
3.9834e-07
3.99118e-07
3.98099e-07
4.00258e-07
3.98618e-07
3.98439e-07
3.99076e-07
3.97912e-07
3.9848e-07
4.00248e-07
3.99159e-07
3.98819e-07
4.00054e-07
3.99625e-07
3.98984e-07
3.99135e-07
3.98041e-07
3.99063e-07
3.98683e-07
3.99572e-07
3.98561e-07
4.00015e-07
3.98153e-07
3.98887e-07
3.98086e-07
3.98528e-07
3.98027e-07
3.99557e-07
3.98562e-07
3.99151e-07
3.98292e-07
3.99121e-07
3.98382e-07
3.99352e-07
3.98776e-07
3.99592e-07
3.98504e-07
4.00265e-07
3.97751e-07
4.00947e-07
3.94564e-07
4.03471e-07
3.43453e-07
4.35505e-07
3.98821e-07
3.97446e-07
4.00443e-07
3.98863e-07
3.98655e-07
3.98651e-07
3.98593e-07
3.98498e-07
3.98685e-07
3.98209e-07
4.00412e-07
3.97475e-07
4.01136e-07
3.98462e-07
3.98998e-07
3.98546e-07
3.99531e-07
3.98371e-07
4.01257e-07
3.99059e-07
4.0038e-07
3.9875e-07
4.01245e-07
3.98742e-07
3.98007e-07
3.9869e-07
3.99304e-07
3.97495e-07
4.00259e-07
3.98435e-07
3.99464e-07
3.9928e-07
3.99281e-07
3.9861e-07
3.99334e-07
3.98886e-07
3.98973e-07
3.98254e-07
3.99618e-07
3.98882e-07
3.9982e-07
3.98438e-07
3.99108e-07
3.98276e-07
3.99415e-07
3.98261e-07
3.99073e-07
3.9835e-07
3.99128e-07
3.98621e-07
3.99e-07
3.98293e-07
3.99871e-07
3.97943e-07
4.00976e-07
3.95644e-07
3.99993e-07
3.41979e-07
4.34973e-07
3.97416e-07
3.98529e-07
3.99102e-07
3.98541e-07
3.98611e-07
3.98594e-07
3.9856e-07
3.98558e-07
3.9844e-07
3.99488e-07
3.97578e-07
4.0028e-07
3.98118e-07
4.00455e-07
3.98792e-07
3.99436e-07
3.98739e-07
4.00166e-07
3.98614e-07
3.97362e-07
3.98129e-07
3.99341e-07
3.98352e-07
3.98785e-07
3.99005e-07
3.99279e-07
3.988e-07
3.98439e-07
3.99726e-07
3.99409e-07
3.99542e-07
3.99045e-07
3.9827e-07
3.99089e-07
3.98324e-07
3.99243e-07
3.9823e-07
3.99378e-07
3.98607e-07
3.99699e-07
3.98037e-07
3.98762e-07
3.98241e-07
3.99317e-07
3.98364e-07
3.99101e-07
3.98152e-07
3.99058e-07
3.98544e-07
3.99328e-07
3.97765e-07
3.99318e-07
3.9877e-07
3.99421e-07
3.98319e-07
4.00819e-07
3.95967e-07
4.02586e-07
3.3977e-07
4.34136e-07
3.99442e-07
3.98307e-07
3.97875e-07
3.98518e-07
3.98574e-07
3.98459e-07
3.9855e-07
3.98542e-07
3.98949e-07
3.98217e-07
4.00566e-07
3.97763e-07
3.99748e-07
3.98182e-07
3.99453e-07
3.97743e-07
4.00362e-07
3.98335e-07
3.99624e-07
3.98454e-07
4.01865e-07
3.98498e-07
4.00327e-07
3.9913e-07
3.99295e-07
3.9935e-07
4.00071e-07
3.98538e-07
3.98754e-07
3.98155e-07
3.98764e-07
3.98148e-07
3.99343e-07
3.98848e-07
3.99877e-07
3.98713e-07
3.99262e-07
3.98365e-07
4.00281e-07
3.97946e-07
3.98271e-07
3.99153e-07
3.99526e-07
3.98067e-07
3.99707e-07
3.98544e-07
3.99052e-07
3.9859e-07
3.99379e-07
3.98635e-07
3.99622e-07
3.98556e-07
3.99397e-07
3.98329e-07
3.9899e-07
3.97688e-07
4.01265e-07
3.95643e-07
4.04617e-07
3.41952e-07
4.35236e-07
3.97802e-07
3.98518e-07
3.98468e-07
3.98992e-07
3.98614e-07
3.98534e-07
3.98627e-07
3.98556e-07
3.9845e-07
3.99624e-07
3.97346e-07
4.00373e-07
3.97094e-07
4.00343e-07
3.98251e-07
4.01863e-07
3.98629e-07
3.98767e-07
3.98942e-07
3.99742e-07
3.97844e-07
3.98229e-07
3.98054e-07
3.99002e-07
3.99472e-07
3.99332e-07
3.98758e-07
3.98199e-07
3.98815e-07
4.0026e-07
3.99459e-07
3.98476e-07
3.98712e-07
3.99174e-07
3.98587e-07
3.99254e-07
3.98145e-07
3.99107e-07
3.98352e-07
3.98861e-07
3.9923e-07
3.99922e-07
3.97793e-07
3.99435e-07
3.98287e-07
3.98913e-07
3.98243e-07
3.99077e-07
3.98381e-07
3.98762e-07
3.98315e-07
3.99572e-07
3.97958e-07
3.99391e-07
3.98722e-07
3.99875e-07
3.97633e-07
4.01093e-07
3.95432e-07
4.047e-07
3.41392e-07
4.34898e-07
3.98912e-07
3.98735e-07
3.9925e-07
3.98534e-07
3.98559e-07
3.98478e-07
3.9861e-07
3.98625e-07
3.98723e-07
3.98561e-07
4.00632e-07
3.97579e-07
4.01525e-07
3.9809e-07
4.00443e-07
3.98226e-07
3.9944e-07
3.98682e-07
3.99894e-07
3.98472e-07
3.99558e-07
3.99858e-07
3.99827e-07
3.99478e-07
3.99592e-07
3.98479e-07
3.99092e-07
3.98992e-07
3.99744e-07
3.98514e-07
3.9907e-07
3.98899e-07
4.00888e-07
3.98878e-07
3.9987e-07
3.98581e-07
3.9968e-07
3.98797e-07
3.99159e-07
3.98626e-07
3.99964e-07
3.9747e-07
3.98726e-07
3.99035e-07
3.99649e-07
3.98081e-07
3.99227e-07
3.98674e-07
3.99221e-07
3.9853e-07
3.99108e-07
3.98668e-07
3.99198e-07
3.97822e-07
3.99353e-07
3.98184e-07
4.00339e-07
3.9755e-07
4.00439e-07
3.95146e-07
4.0352e-07
3.45232e-07
4.3495e-07
3.97891e-07
3.98527e-07
3.97435e-07
3.98637e-07
3.98446e-07
3.9866e-07
3.9857e-07
3.98614e-07
3.98607e-07
3.99306e-07
3.98039e-07
4.00211e-07
3.98068e-07
3.99786e-07
3.99266e-07
3.99847e-07
3.98362e-07
3.99128e-07
3.99704e-07
3.98787e-07
3.98719e-07
3.98484e-07
3.98165e-07
3.9926e-07
3.97949e-07
3.9881e-07
3.99227e-07
3.99077e-07
3.98818e-07
3.98913e-07
3.99374e-07
3.98288e-07
3.98508e-07
3.97675e-07
3.98776e-07
3.98811e-07
3.99105e-07
3.97972e-07
3.98931e-07
3.99212e-07
3.98713e-07
3.98575e-07
3.99275e-07
3.9936e-07
3.98071e-07
3.99246e-07
3.98357e-07
3.98708e-07
3.98424e-07
3.99088e-07
3.98392e-07
3.98955e-07
3.9841e-07
3.99676e-07
3.98458e-07
3.99465e-07
3.98415e-07
3.99149e-07
3.98239e-07
4.01177e-07
3.95318e-07
4.01199e-07
3.43803e-07
4.3355e-07
3.98673e-07
3.97971e-07
3.99377e-07
3.98573e-07
3.98674e-07
3.98312e-07
3.98574e-07
3.98672e-07
3.98755e-07
3.98591e-07
3.99788e-07
3.98244e-07
4.00154e-07
3.9837e-07
3.99142e-07
3.97632e-07
4.00405e-07
3.98187e-07
4.00014e-07
3.98887e-07
3.99613e-07
3.99619e-07
4.00291e-07
3.98491e-07
3.99849e-07
3.99054e-07
4.00241e-07
3.99476e-07
3.9963e-07
3.99383e-07
3.99295e-07
3.98568e-07
3.99323e-07
3.98541e-07
4.0023e-07
3.98799e-07
3.99364e-07
3.98941e-07
3.98856e-07
3.98963e-07
3.99463e-07
3.98237e-07
3.99371e-07
3.98094e-07
3.99128e-07
3.98452e-07
3.99776e-07
3.98226e-07
3.99098e-07
3.98512e-07
3.99078e-07
3.98443e-07
3.9915e-07
3.98526e-07
3.99189e-07
3.98329e-07
3.98829e-07
3.98304e-07
4.0029e-07
3.97246e-07
4.00945e-07
3.96772e-07
4.01939e-07
3.41609e-07
4.3501e-07
3.977e-07
3.9896e-07
3.97875e-07
3.98703e-07
3.97735e-07
3.9855e-07
3.98737e-07
3.98584e-07
3.98549e-07
3.99531e-07
3.98085e-07
3.99924e-07
3.97595e-07
4.00528e-07
3.97844e-07
4.00133e-07
3.98045e-07
3.99273e-07
3.98983e-07
3.99166e-07
3.98151e-07
3.99835e-07
3.98284e-07
3.99121e-07
3.99273e-07
3.98635e-07
3.99256e-07
3.98573e-07
3.99338e-07
3.98712e-07
3.9901e-07
3.98719e-07
3.99069e-07
3.98023e-07
3.98924e-07
3.98409e-07
3.98994e-07
3.99299e-07
3.99017e-07
3.99686e-07
3.98385e-07
3.992e-07
3.99051e-07
3.99166e-07
3.98749e-07
3.99479e-07
3.98276e-07
3.99084e-07
3.98092e-07
3.98948e-07
3.98286e-07
3.99237e-07
3.97958e-07
3.99131e-07
3.98427e-07
3.99603e-07
3.98614e-07
3.99795e-07
3.97936e-07
4.00061e-07
3.97611e-07
4.01142e-07
3.95449e-07
4.07088e-07
3.41813e-07
4.33245e-07
3.98738e-07
3.97684e-07
3.98702e-07
3.97591e-07
3.99287e-07
3.98737e-07
3.98616e-07
3.98588e-07
3.98627e-07
3.98363e-07
4.00101e-07
3.97961e-07
4.00522e-07
3.98135e-07
4.00347e-07
3.98446e-07
4.00263e-07
3.98697e-07
3.99362e-07
3.97624e-07
4.0061e-07
3.99021e-07
3.99167e-07
3.99092e-07
3.99102e-07
3.99202e-07
3.99562e-07
3.98947e-07
3.99554e-07
3.9836e-07
4.00016e-07
3.98216e-07
3.99557e-07
3.98754e-07
4.00419e-07
3.98962e-07
3.99392e-07
3.98746e-07
3.98501e-07
3.98545e-07
3.98568e-07
3.98532e-07
3.99642e-07
3.98061e-07
3.99487e-07
3.9797e-07
3.98903e-07
3.9866e-07
3.99314e-07
3.98508e-07
3.99236e-07
3.98748e-07
3.99382e-07
3.98437e-07
3.99354e-07
3.98322e-07
3.99484e-07
3.97993e-07
3.99629e-07
3.98108e-07
3.99969e-07
3.98196e-07
4.01452e-07
3.93057e-07
4.06317e-07
3.42396e-07
4.34191e-07
3.97641e-07
3.98948e-07
3.98454e-07
3.99662e-07
3.98649e-07
3.98437e-07
3.9866e-07
3.9853e-07
3.98557e-07
3.99388e-07
3.97736e-07
3.99855e-07
3.98122e-07
4.00961e-07
3.98485e-07
4.00244e-07
3.99544e-07
3.99327e-07
3.99062e-07
4.01786e-07
3.98619e-07
3.99618e-07
3.99152e-07
3.99262e-07
3.99023e-07
3.99891e-07
3.98659e-07
3.99251e-07
3.99203e-07
3.98736e-07
3.99407e-07
3.98439e-07
3.99634e-07
3.9898e-07
3.98897e-07
3.97619e-07
3.98503e-07
3.99231e-07
3.99002e-07
4e-07
3.99216e-07
3.9835e-07
3.99031e-07
3.98847e-07
3.98775e-07
3.99251e-07
3.99061e-07
3.99115e-07
3.98358e-07
3.99221e-07
3.98191e-07
3.98695e-07
3.98035e-07
3.98943e-07
3.98259e-07
3.98902e-07
3.98412e-07
3.99656e-07
3.98266e-07
3.997e-07
3.98452e-07
3.99419e-07
3.97311e-07
4.0159e-07
3.94538e-07
4.07975e-07
3.42535e-07
4.33905e-07
3.99036e-07
3.97748e-07
3.98465e-07
3.98108e-07
3.98437e-07
3.98527e-07
3.98598e-07
3.98451e-07
3.98572e-07
3.98638e-07
4.00057e-07
3.98252e-07
3.99837e-07
3.98838e-07
3.99772e-07
3.98766e-07
3.98737e-07
3.98441e-07
3.99934e-07
3.98911e-07
3.98529e-07
3.98309e-07
3.9878e-07
3.99257e-07
3.99559e-07
3.98057e-07
3.99249e-07
3.98933e-07
3.99058e-07
3.99034e-07
3.9976e-07
3.98887e-07
3.99942e-07
3.98396e-07
3.99756e-07
3.98695e-07
3.99987e-07
3.98525e-07
3.99348e-07
3.98569e-07
3.98597e-07
3.98646e-07
3.99943e-07
3.98549e-07
3.99597e-07
3.97868e-07
3.993e-07
3.98272e-07
3.99348e-07
3.98441e-07
3.99201e-07
3.9858e-07
3.99465e-07
3.98475e-07
3.99267e-07
3.98292e-07
3.99229e-07
3.98415e-07
3.99255e-07
3.98538e-07
3.99567e-07
3.98174e-07
4.00153e-07
3.97724e-07
4.00795e-07
3.94222e-07
4.06569e-07
3.44471e-07
4.34788e-07
3.97869e-07
3.9961e-07
3.98546e-07
3.98519e-07
3.98622e-07
3.98597e-07
3.98663e-07
3.98469e-07
3.98531e-07
3.98953e-07
3.98339e-07
4.00085e-07
3.97913e-07
4.00442e-07
3.98366e-07
3.99207e-07
3.9967e-07
3.9926e-07
3.98621e-07
3.98866e-07
3.9877e-07
3.99606e-07
3.99129e-07
3.99556e-07
3.99271e-07
4.00102e-07
3.98953e-07
3.99205e-07
3.99323e-07
3.99239e-07
3.98799e-07
3.98729e-07
3.98771e-07