/*--------------------------------*- C++ -*----------------------------------*\
| =========                 |                                                 |
| \\      /  F ield         | OpenFOAM: The Open Source CFD Toolbox           |
|  \\    /   O peration     | Version:  2206                                  |
|   \\  /    A nd           | Website:  www.openfoam.com                      |
|    \\/     M anipulation  |                                                 |
\*---------------------------------------------------------------------------*/
FoamFile
{
    version     2.0;
    format      ascii;
    arch        "LSB;label=32;scalar=64";
    class       volScalarField;
    location    "190";
    object      nuTildaMean;
}
// * * * * * * * * * * * * * * * * * * * * * * * * * * * * * * * * * * * * * //

dimensions      [0 2 -1 0 0 0 0];

internalField   nonuniform List<scalar> 
93840
(
4.49752e-07
2.71352e-07
4.50202e-07
4.03808e-07
2.6776e-07
4.404e-07
3.67002e-07
4.18426e-07
3.06613e-07
4.29918e-07
4.15782e-07
3.82572e-07
4.13907e-07
3.3498e-07
4.31581e-07
3.87879e-07
4.04671e-07
3.87404e-07
4.10762e-07
3.32559e-07
4.12088e-07
4.00715e-07
3.9502e-07
4.04698e-07
3.88752e-07
4.1532e-07
3.64012e-07
4.34289e-07
3.96718e-07
4.00644e-07
3.92987e-07
4.03046e-07
3.93751e-07
4.11543e-07
3.4929e-07
4.11457e-07
3.99877e-07
3.90556e-07
4.00773e-07
3.97454e-07
4.00275e-07
3.95085e-07
4.06663e-07
3.55962e-07
4.32874e-07
3.97066e-07
4.06718e-07
3.9694e-07
3.99125e-07
3.97476e-07
3.9978e-07
3.91684e-07
4.06227e-07
3.50258e-07
4.17467e-07
3.99563e-07
3.9342e-07
4.01469e-07
3.956e-07
4.00408e-07
3.98394e-07
3.99399e-07
3.95608e-07
4.05058e-07
3.63525e-07
4.34476e-07
3.96222e-07
4.00937e-07
3.94867e-07
4.02238e-07
3.98249e-07
3.98999e-07
3.97678e-07
4.01507e-07
3.92092e-07
3.99646e-07
3.58751e-07
4.17559e-07
3.99482e-07
3.94439e-07
4.00096e-07
3.97214e-07
3.99338e-07
3.98946e-07
4.0063e-07
3.95041e-07
4.02013e-07
3.96209e-07
3.99976e-07
3.61032e-07
4.27344e-07
3.97993e-07
4.00099e-07
3.95608e-07
3.9828e-07
3.97582e-07
3.98696e-07
3.98301e-07
4.0205e-07
3.98179e-07
4.01746e-07
3.96487e-07
4.04682e-07
3.58302e-07
4.2112e-07
3.98181e-07
3.97269e-07
4.00001e-07
3.98656e-07
3.98701e-07
3.98471e-07
3.9882e-07
3.97432e-07
3.98608e-07
3.97121e-07
3.99455e-07
3.94309e-07
4.05563e-07
3.62478e-07
4.2774e-07
3.98218e-07
3.99132e-07
3.97382e-07
3.98359e-07
3.98235e-07
3.98618e-07
3.98661e-07
3.99625e-07
3.97709e-07
4.00859e-07
3.97652e-07
4.01763e-07
3.93311e-07
4.01856e-07
3.59016e-07
4.2158e-07
3.98351e-07
3.96935e-07
3.9981e-07
3.98428e-07
3.98833e-07
3.98397e-07
3.9848e-07
3.98374e-07
4.00085e-07
3.97785e-07
3.9949e-07
3.97548e-07
3.99675e-07
3.95734e-07
4.03408e-07
3.61106e-07
4.25739e-07
3.98136e-07
3.99208e-07
3.96331e-07
3.98464e-07
3.97271e-07
3.98494e-07
3.9842e-07
3.98776e-07
3.97402e-07
3.99855e-07
3.97725e-07
3.99902e-07
3.97197e-07
4.02215e-07
3.95061e-07
4.04921e-07
3.60383e-07
4.21311e-07
3.98177e-07
3.97912e-07
3.99504e-07
3.97509e-07
3.99482e-07
3.98387e-07
3.98927e-07
3.97758e-07
3.99655e-07
3.98358e-07
3.9943e-07
3.98036e-07
3.99774e-07
3.97416e-07
3.99125e-07
3.93725e-07
4.04992e-07
3.63341e-07
4.24827e-07
3.98252e-07
3.98499e-07
3.97452e-07
3.99612e-07
3.97907e-07
3.98283e-07
3.98393e-07
3.9969e-07
3.9805e-07
3.99036e-07
3.9768e-07
3.99653e-07
3.97739e-07
4.006e-07
3.9795e-07
4.02422e-07
3.94732e-07
4.02542e-07
3.62195e-07
4.20617e-07
3.9833e-07
3.97941e-07
3.98755e-07
3.97954e-07
3.98881e-07
3.9848e-07
3.98706e-07
3.97818e-07
3.99508e-07
3.9851e-07
3.99738e-07
3.97488e-07
4.00118e-07
3.98761e-07
3.99501e-07
3.97184e-07
3.9943e-07
3.96282e-07
4.03649e-07
3.63468e-07
4.24342e-07
3.98127e-07
3.98529e-07
3.97805e-07
3.9848e-07
3.97648e-07
3.98329e-07
3.98522e-07
3.99006e-07
3.9777e-07
3.98695e-07
3.97832e-07
4.00342e-07
3.9786e-07
3.9949e-07
3.96008e-07
3.99907e-07
3.97267e-07
4.01763e-07
3.93688e-07
4.03943e-07
3.61149e-07
4.21456e-07
3.98482e-07
3.97874e-07
3.98415e-07
3.98241e-07
3.98639e-07
3.98436e-07
3.98673e-07
3.97568e-07
3.99739e-07
3.9767e-07
3.99751e-07
3.97118e-07
3.99961e-07
3.98456e-07
4.00451e-07
3.98688e-07
4.00453e-07
3.96793e-07
3.99777e-07
3.95818e-07
4.04379e-07
3.64283e-07
4.25382e-07
3.98001e-07
3.98669e-07
3.98298e-07
3.9895e-07
3.98098e-07
3.98305e-07
3.9846e-07
4.00035e-07
3.96058e-07
3.99301e-07
3.97814e-07
3.99845e-07
3.97223e-07
3.98744e-07
3.96918e-07
4.00378e-07
3.96156e-07
4.00766e-07
3.97808e-07
4.02277e-07
3.93244e-07
4.03629e-07
3.62377e-07
4.23954e-07
3.98262e-07
3.97813e-07
3.98426e-07
3.97452e-07
3.98582e-07
3.98437e-07
3.98538e-07
3.97982e-07
4.01594e-07
3.98464e-07
3.99958e-07
3.97508e-07
4.00391e-07
3.97872e-07
4.0052e-07
3.98393e-07
4.00323e-07
3.98524e-07
3.99966e-07
3.9599e-07
3.99821e-07
3.95734e-07
4.02315e-07
3.64907e-07
4.31147e-07
3.98021e-07
3.98646e-07
3.98215e-07
3.98772e-07
3.97886e-07
3.98465e-07
3.98316e-07
3.98573e-07
3.9683e-07
3.98676e-07
3.97201e-07
3.99131e-07
3.97104e-07
4.00047e-07
3.97217e-07
3.98911e-07
3.96603e-07
4.00154e-07
3.96647e-07
4.00661e-07
3.97733e-07
4.0246e-07
3.93961e-07
4.01269e-07
3.59124e-07
4.16876e-07
3.98497e-07
3.98253e-07
3.98506e-07
3.97606e-07
3.98549e-07
3.98294e-07
3.98385e-07
3.9839e-07
3.98932e-07
3.98444e-07
3.9956e-07
3.98234e-07
4.00337e-07
3.97014e-07
3.99575e-07
3.98896e-07
3.99648e-07
3.97969e-07
4.00064e-07
3.98818e-07
3.99553e-07
3.96723e-07
4.0145e-07
3.96602e-07
4.02086e-07
3.62812e-07
4.24221e-07
3.98078e-07
3.9845e-07
3.983e-07
3.99051e-07
3.98418e-07
3.9875e-07
3.98332e-07
3.99047e-07
3.97868e-07
3.99574e-07
3.97358e-07
3.99375e-07
3.9722e-07
3.99781e-07
3.97312e-07
3.98724e-07
3.97617e-07
3.99596e-07
3.9833e-07
3.9945e-07
3.97191e-07
3.99819e-07
3.9779e-07
4.01516e-07
3.94881e-07
4.02815e-07
3.66234e-07
4.2095e-07
3.98288e-07
3.98265e-07
3.98598e-07
3.97972e-07
3.9847e-07
3.98007e-07
3.98559e-07
3.97568e-07
3.99656e-07
3.97267e-07
3.99582e-07
3.97717e-07
3.99843e-07
3.97963e-07
4.00821e-07
3.97908e-07
3.99996e-07
3.98467e-07
3.99717e-07
3.98032e-07
4.0051e-07
3.98271e-07
3.99966e-07
3.96923e-07
4.00259e-07
3.9659e-07
4.02128e-07
3.64708e-07
4.24312e-07
3.98295e-07
3.98391e-07
3.97852e-07
3.98674e-07
3.98378e-07
3.98864e-07
3.98551e-07
4.00082e-07
3.95707e-07
3.99982e-07
3.97197e-07
3.99625e-07
3.97444e-07
3.9911e-07
3.97557e-07
3.99325e-07
3.97547e-07
3.99024e-07
3.97283e-07
3.99233e-07
3.96948e-07
3.99791e-07
3.97611e-07
4.00053e-07
3.98439e-07
4.00791e-07
3.94508e-07
4.03493e-07
3.644e-07
4.2169e-07
3.98718e-07
3.9815e-07
3.98925e-07
3.98485e-07
3.98596e-07
3.97969e-07
3.98395e-07
3.98076e-07
4.02042e-07
3.98074e-07
3.99993e-07
3.97445e-07
3.99765e-07
3.98044e-07
4.0024e-07
3.97769e-07
4.0027e-07
3.9876e-07
3.99963e-07
3.99406e-07
3.99972e-07
3.98642e-07
3.99738e-07
3.98126e-07
3.99454e-07
3.97362e-07
4.00185e-07
3.95841e-07
4.01728e-07
3.66545e-07
4.23726e-07
3.97795e-07
3.986e-07
3.97588e-07
3.98495e-07
3.98274e-07
3.99488e-07
3.98495e-07
3.9876e-07
3.96635e-07
3.98573e-07
3.97367e-07
4.00386e-07
3.97374e-07
3.99104e-07
3.97605e-07
3.99529e-07
3.97605e-07
3.98965e-07
3.96798e-07
3.99101e-07
3.97457e-07
3.99149e-07
3.97306e-07
3.99769e-07
3.98281e-07
3.9992e-07
3.98111e-07
4.01267e-07
3.95847e-07
4.01038e-07
3.65238e-07
4.21847e-07
3.98491e-07
3.979e-07
3.98781e-07
3.98409e-07
3.98334e-07
3.96545e-07
3.9832e-07
3.98478e-07
3.98946e-07
3.98312e-07
3.99742e-07
3.97314e-07
3.99553e-07
3.97929e-07
3.99532e-07
3.98532e-07
3.99249e-07
3.98087e-07
4.00333e-07
3.99009e-07
3.9925e-07
3.98333e-07
3.99054e-07
3.99037e-07
3.99113e-07
3.97665e-07
3.99461e-07
3.96939e-07
4.00361e-07
3.96843e-07
4.01301e-07
3.6578e-07
4.23154e-07
3.98087e-07
3.9851e-07
3.98196e-07
3.98498e-07
3.98316e-07
3.99194e-07
3.98642e-07
3.98809e-07
3.98011e-07
3.99504e-07
3.97824e-07
4.00274e-07
3.97553e-07
3.99021e-07
3.97785e-07
3.989e-07
3.97826e-07
3.99642e-07
3.98023e-07
3.99173e-07
3.9688e-07
3.99223e-07
3.9797e-07
3.99377e-07
3.97296e-07
3.99886e-07
3.9805e-07
3.99927e-07
3.97779e-07
4.01107e-07
3.95109e-07
4.01908e-07
3.66077e-07
4.22416e-07
3.9831e-07
3.97757e-07
3.98352e-07
3.98307e-07
3.98303e-07
3.98389e-07
3.98301e-07
3.98432e-07
3.99238e-07
3.97817e-07
3.99126e-07
3.97238e-07
3.99922e-07
3.98073e-07
4.00034e-07
3.98141e-07
3.99077e-07
3.98155e-07
3.98942e-07
3.98354e-07
3.99889e-07
3.98267e-07
4.00141e-07
3.98612e-07
3.99457e-07
3.99004e-07
3.99423e-07
3.97963e-07
4.00218e-07
3.97266e-07
4.01029e-07
3.97327e-07
4.01213e-07
3.65539e-07
4.23279e-07
3.97951e-07
3.98938e-07
3.98373e-07
3.98299e-07
3.98323e-07
3.98287e-07
3.98534e-07
3.98827e-07
3.98188e-07
3.99479e-07
3.97897e-07
3.99742e-07
3.9744e-07
3.99532e-07
3.9792e-07
3.98883e-07
3.98317e-07
3.99274e-07
3.98059e-07
3.99554e-07
3.97606e-07
3.99297e-07
3.96381e-07
3.98903e-07
3.97736e-07
3.9878e-07
3.97541e-07
3.99609e-07
3.97622e-07
3.99538e-07
3.97414e-07
4.01198e-07
3.94672e-07
4.01726e-07
3.65014e-07
4.21734e-07
3.98367e-07
3.97992e-07
3.98506e-07
3.98311e-07
3.98381e-07
3.98291e-07
3.98413e-07
3.98267e-07
3.98996e-07
3.98133e-07
3.99339e-07
3.97313e-07
4.00025e-07
3.97841e-07
4.00019e-07
3.97773e-07
3.9913e-07
3.98185e-07
3.99513e-07
3.98406e-07
3.99098e-07
3.98888e-07
4.00736e-07
3.99427e-07
3.9923e-07
3.98756e-07
3.99696e-07
3.98576e-07
3.99578e-07
3.98301e-07
4.00418e-07
3.978e-07
4.00871e-07
3.97007e-07
4.02546e-07
3.66021e-07
4.24262e-07
3.98251e-07
3.98608e-07
3.98424e-07
3.98581e-07
3.98344e-07
3.98507e-07
3.98544e-07
3.98803e-07
3.97997e-07
3.99162e-07
3.97946e-07
3.9983e-07
3.97742e-07
3.99151e-07
3.9751e-07
3.99737e-07
3.98581e-07
3.99091e-07
3.98071e-07
3.98864e-07
3.97943e-07
3.99008e-07
3.96746e-07
3.99362e-07
3.9701e-07
3.98967e-07
3.98014e-07
3.98491e-07
3.97944e-07
3.99185e-07
3.97186e-07
3.99121e-07
3.97932e-07
4.01354e-07
3.95175e-07
4.0155e-07
3.64874e-07
4.22273e-07
3.98466e-07
3.98042e-07
3.98744e-07
3.9789e-07
3.9851e-07
3.98608e-07
3.98679e-07
3.98645e-07
3.99703e-07
3.97794e-07
3.99377e-07
3.97981e-07
3.99946e-07
3.97833e-07
3.99785e-07
3.97666e-07
3.99309e-07
3.98164e-07
3.99036e-07
3.98946e-07
3.99357e-07
3.98345e-07
3.99401e-07
3.98969e-07
3.9982e-07
3.99247e-07
3.99273e-07
3.98635e-07
3.99592e-07
3.98538e-07
3.99786e-07
3.99006e-07
3.99661e-07
3.97315e-07
4.00915e-07
3.96749e-07
4.02162e-07
3.66674e-07
4.24011e-07
3.98292e-07
3.99014e-07
3.98422e-07
3.99336e-07
3.98668e-07
3.98766e-07
3.98766e-07
3.9873e-07
3.98375e-07
3.99533e-07
3.97912e-07
3.99218e-07
3.97617e-07
3.99917e-07
3.97599e-07
3.99929e-07
3.98178e-07
3.99037e-07
3.98126e-07
3.98975e-07
3.97608e-07
3.99079e-07
3.98088e-07
3.99211e-07
3.97113e-07
3.9876e-07
3.97913e-07
3.98365e-07
3.98322e-07
3.98603e-07
3.97985e-07
3.99445e-07
3.97772e-07
3.99839e-07
3.97341e-07
4.00634e-07
3.95685e-07
4.02395e-07
3.65848e-07
4.21265e-07
3.98368e-07
3.98351e-07
3.98995e-07
3.98173e-07
3.98716e-07
3.9877e-07
3.98648e-07
3.98584e-07
3.98909e-07
3.97973e-07
3.99451e-07
3.9808e-07
3.99764e-07
3.97761e-07
4.00059e-07
3.97979e-07
3.99582e-07
3.97977e-07
3.99802e-07
3.98496e-07
3.99489e-07
3.98646e-07
3.99219e-07
3.98279e-07
3.99389e-07
3.98823e-07
3.99265e-07
3.98587e-07
3.99464e-07
3.98352e-07
3.99237e-07
3.98652e-07
3.99025e-07
3.98956e-07
3.99739e-07
3.97792e-07
4.003e-07
3.96315e-07
4.01536e-07
3.66483e-07
4.22916e-07
3.98229e-07
3.98528e-07
3.98014e-07
3.99011e-07
3.98859e-07
3.98767e-07
3.98476e-07
3.98476e-07
3.98532e-07
3.99346e-07
3.97842e-07
3.9967e-07
3.97528e-07
3.99535e-07
3.97731e-07
3.99271e-07
3.97886e-07
3.99384e-07
3.98198e-07
3.98745e-07
3.97715e-07
3.99027e-07
3.97812e-07
3.98844e-07
3.98301e-07
3.99124e-07
3.98097e-07
3.99501e-07
3.97949e-07
3.98685e-07
3.98532e-07
3.9909e-07
3.97968e-07
3.99225e-07
3.97709e-07
4.00131e-07
3.97099e-07
4.00782e-07
3.96e-07
4.03524e-07
3.66308e-07
4.21647e-07
3.98495e-07
3.98337e-07
3.9866e-07
3.981e-07
3.98548e-07
3.9848e-07
3.98397e-07
3.9852e-07
3.98841e-07
3.98023e-07
3.99763e-07
3.97891e-07
4.00327e-07
3.98741e-07
4.01375e-07
3.97888e-07
3.99824e-07
3.98757e-07
3.99142e-07
3.98636e-07
4.00014e-07
3.98125e-07
3.99577e-07
3.98286e-07
3.99582e-07
3.9831e-07
3.99253e-07
3.98341e-07
3.99433e-07
3.98716e-07
3.99032e-07
3.98474e-07
3.98861e-07
3.98991e-07
3.98898e-07
3.98485e-07
3.99983e-07
3.97553e-07
4.01191e-07
3.95719e-07
4.0238e-07
3.67426e-07
4.22327e-07
3.98123e-07
3.98512e-07
3.9843e-07
3.98984e-07
3.98385e-07
3.98346e-07
3.98411e-07
3.98765e-07
3.98446e-07
3.99195e-07
3.97635e-07
3.9932e-07
3.97731e-07
3.9901e-07
3.9797e-07
3.97685e-07
3.98055e-07
3.98995e-07
3.97582e-07
3.98813e-07
3.98262e-07
3.9913e-07
3.9787e-07
3.99205e-07
3.98202e-07
3.98795e-07
3.98265e-07
3.98783e-07
3.98102e-07
3.98895e-07
3.98269e-07
3.99035e-07
3.985e-07
3.99245e-07
3.97943e-07
3.9916e-07
3.97642e-07
4.00068e-07
3.96975e-07
4.0071e-07
3.95988e-07
4.02431e-07
3.67491e-07
4.21677e-07
3.98354e-07
3.97927e-07
3.98513e-07
3.97477e-07
3.98266e-07
3.98345e-07
3.98695e-07
3.97773e-07
3.99416e-07
3.98106e-07
3.99666e-07
3.97464e-07
3.9967e-07
3.9841e-07
3.99674e-07
3.98266e-07
4.00239e-07
3.98461e-07
4.00401e-07
3.99145e-07
3.99375e-07
3.98484e-07
3.99969e-07
3.9824e-07
3.99585e-07
3.98413e-07
3.9954e-07
3.98645e-07
3.9922e-07
3.98793e-07
3.99195e-07
3.98308e-07
3.98909e-07
3.98369e-07
3.98735e-07
3.98637e-07
3.9926e-07
3.98187e-07
3.99924e-07
3.97516e-07
4.00664e-07
3.96436e-07
4.01109e-07
3.68285e-07
4.22262e-07
3.97409e-07
3.98655e-07
3.98508e-07
3.99737e-07
3.98484e-07
3.98599e-07
3.98553e-07
3.99822e-07
3.94988e-07
3.99523e-07
3.97991e-07
4.00096e-07
3.97697e-07
3.99046e-07
3.98145e-07
3.99234e-07
3.98831e-07
3.98626e-07
3.99083e-07
3.97587e-07
3.98425e-07
3.98583e-07
3.98578e-07
3.9928e-07
3.98151e-07
3.98684e-07
3.98356e-07
3.9854e-07
3.98167e-07
3.98977e-07
3.97867e-07
3.99287e-07
3.98237e-07
3.99013e-07
3.98506e-07
3.99247e-07
3.98186e-07
3.99473e-07
3.97757e-07
3.9974e-07
3.97449e-07
4.00134e-07
3.9621e-07
4.00929e-07
3.67092e-07
4.21922e-07
3.99494e-07
3.97578e-07
3.98056e-07
3.97721e-07
3.98569e-07
3.98556e-07
3.985e-07
3.98469e-07
4.03328e-07
3.9896e-07
3.99341e-07
3.97553e-07
3.99948e-07
3.97845e-07
3.99664e-07
3.98486e-07
4.00009e-07
3.98189e-07
4.00148e-07
3.97678e-07
4.00034e-07
3.98731e-07
3.99159e-07
3.98084e-07
3.9944e-07
3.98198e-07
3.99822e-07
3.98588e-07
3.99435e-07
3.98634e-07
3.99477e-07
3.98709e-07
3.98873e-07
3.98305e-07
3.99094e-07
3.9845e-07
3.99068e-07
3.98481e-07
3.99211e-07
3.98284e-07
3.99959e-07
3.97512e-07
4.00378e-07
3.96581e-07
4.01774e-07
3.66045e-07
4.2248e-07
3.97735e-07
3.99307e-07
3.98469e-07
3.98432e-07
3.98556e-07
3.98553e-07
3.98521e-07
3.98497e-07
3.96389e-07
3.97939e-07
3.97223e-07
3.99654e-07
3.98391e-07
3.99495e-07
3.98073e-07
3.99136e-07
3.98628e-07
3.98895e-07
3.98919e-07
3.98287e-07
3.99091e-07
3.98136e-07
3.98436e-07
3.99007e-07
3.98349e-07
3.99135e-07
3.98429e-07
3.98496e-07
3.98098e-07
3.99025e-07
3.97703e-07
3.98701e-07
3.98272e-07
3.99161e-07
3.98543e-07
3.9883e-07
3.98503e-07
3.9908e-07
3.98238e-07
3.99264e-07
3.97874e-07
3.99964e-07
3.97168e-07
4.00691e-07
3.96409e-07
4.03714e-07
3.66252e-07
4.21944e-07
3.98387e-07
3.97927e-07
3.98802e-07
3.98427e-07
3.98585e-07
3.98477e-07
3.98485e-07
3.98583e-07
3.98508e-07
3.98748e-07
4.00266e-07
3.9845e-07
3.99049e-07
3.98083e-07
3.99722e-07
3.98553e-07
3.98971e-07
3.9876e-07
3.99741e-07
3.98317e-07
3.9966e-07
3.98855e-07
3.99676e-07
3.98597e-07
3.99542e-07
3.98342e-07
3.9939e-07
3.98273e-07
3.99597e-07
3.98544e-07
3.99407e-07
3.98717e-07
3.9923e-07
3.98625e-07
3.98836e-07
3.98074e-07
3.99154e-07
3.98364e-07
3.99019e-07
3.98383e-07
3.9935e-07
3.98094e-07
3.9994e-07
3.97514e-07
3.99928e-07
3.95878e-07
4.03041e-07
3.67002e-07
4.21853e-07
3.97597e-07
3.98716e-07
3.97767e-07
3.98442e-07
3.98509e-07
3.98456e-07
3.98539e-07
3.98595e-07
3.98295e-07
3.99311e-07
3.97778e-07
3.99398e-07
3.97446e-07
3.99548e-07
3.97874e-07
3.98837e-07
3.9796e-07
3.99154e-07
3.98755e-07
3.99277e-07
3.98843e-07
3.9851e-07
3.98389e-07
3.9868e-07
3.98953e-07
3.98761e-07
3.98066e-07
3.991e-07
3.98502e-07
3.98578e-07
3.9811e-07
3.99334e-07
3.97794e-07
3.98882e-07
3.98414e-07
3.99355e-07
3.98551e-07
3.98913e-07
3.9858e-07
3.99146e-07
3.9816e-07
3.99175e-07
3.97897e-07
4.0023e-07
3.97427e-07
4.00269e-07
3.95739e-07
4.0246e-07
3.68378e-07
4.21436e-07
3.99538e-07
3.98058e-07
3.98467e-07
3.98619e-07
3.98592e-07
3.98566e-07
3.98447e-07
3.98506e-07
3.98997e-07
3.98201e-07
3.9924e-07
3.98211e-07
4.00401e-07
3.97991e-07
3.99823e-07
3.99145e-07
4.00178e-07
3.98223e-07
3.9926e-07
3.98447e-07
3.99648e-07
3.98417e-07
3.99618e-07
3.98807e-07
3.9939e-07
3.97678e-07
3.99609e-07
3.98623e-07
3.99513e-07
3.98306e-07
3.99421e-07
3.98614e-07
3.99269e-07
3.9891e-07
3.98993e-07
3.98378e-07
3.98982e-07
3.98066e-07
3.98925e-07
3.98354e-07
3.99116e-07
3.98207e-07
3.9912e-07
3.97723e-07
4.00017e-07
3.97065e-07
4.00356e-07
3.96663e-07
4.01399e-07
3.67615e-07
4.22275e-07
3.97346e-07
3.98837e-07
3.9899e-07
3.98527e-07
3.98528e-07
3.98561e-07
3.98585e-07
3.98471e-07
3.98456e-07
3.99387e-07
3.98068e-07
3.99526e-07
3.97737e-07
3.99962e-07
3.97973e-07
3.99095e-07
3.97377e-07
3.99076e-07
3.98384e-07
3.98808e-07
3.98569e-07
3.99112e-07
3.98658e-07
3.98495e-07
3.9865e-07
3.9885e-07
3.98922e-07
3.98947e-07
3.97939e-07
3.98897e-07
3.98439e-07
3.98815e-07
3.97919e-07
3.99372e-07
3.97898e-07
3.98864e-07
3.98306e-07
3.99263e-07
3.98473e-07
3.98867e-07
3.98365e-07
3.99393e-07
3.98406e-07
3.99404e-07
3.97616e-07
4.0034e-07
3.97078e-07
4.00252e-07
3.96372e-07
4.01786e-07
3.67269e-07
4.2159e-07
3.98974e-07
3.97617e-07
3.97987e-07
3.98208e-07
3.98528e-07
3.98447e-07
3.98489e-07
3.98454e-07
3.98667e-07
3.98223e-07
3.98947e-07
3.98237e-07
3.99547e-07
3.9809e-07
3.99672e-07
3.98578e-07
4.00167e-07
3.98436e-07
3.99676e-07
3.98573e-07
3.9952e-07
3.98357e-07
3.99709e-07
3.98705e-07
3.99542e-07
3.98466e-07
3.99717e-07
3.98255e-07
3.9955e-07
3.98564e-07
3.99097e-07
3.98633e-07
3.99223e-07
3.98778e-07
3.99164e-07
3.98714e-07
3.98931e-07
3.98344e-07
3.9905e-07
3.98024e-07
3.99023e-07
3.98345e-07
3.99069e-07
3.98215e-07
3.99477e-07
3.97767e-07
4.00298e-07
3.977e-07
4.00358e-07
3.96701e-07
4.018e-07
3.6757e-07
4.22451e-07
3.97442e-07
3.99185e-07
3.97449e-07
3.98477e-07
3.9847e-07
3.9843e-07
3.9843e-07
3.98651e-07
3.98425e-07
3.98869e-07
3.98246e-07
3.99399e-07
3.97605e-07
3.99275e-07
3.9799e-07
3.99728e-07
3.98297e-07
3.99159e-07
3.98209e-07
3.98876e-07
3.98335e-07
3.99178e-07
3.98676e-07
3.98888e-07
3.98776e-07
3.98594e-07
3.98406e-07
3.98547e-07
3.98448e-07
3.98834e-07
3.98231e-07
3.99222e-07
3.98256e-07
3.98945e-07
3.98196e-07
3.99246e-07
3.98457e-07
3.99093e-07
3.9841e-07
3.99383e-07
3.98291e-07
3.98949e-07
3.98399e-07
3.99444e-07
3.98184e-07
3.99473e-07
3.98069e-07
3.99632e-07
3.97622e-07
4.00562e-07
3.96154e-07
4.025e-07
3.68077e-07
4.21889e-07
3.9933e-07
3.98272e-07
3.9999e-07
3.9854e-07
3.98429e-07
3.98485e-07
3.98462e-07
3.98466e-07
3.98796e-07
3.98463e-07
3.99299e-07
3.981e-07
4.00057e-07
3.98426e-07
4.00018e-07
3.98353e-07
3.99071e-07
3.98597e-07
4.00241e-07
3.98297e-07
3.99856e-07
3.98147e-07
3.99744e-07
3.98067e-07
3.99662e-07
3.98304e-07
3.99366e-07
3.98915e-07
3.99885e-07
3.98237e-07
3.99583e-07
3.98514e-07
3.99017e-07
3.98504e-07
3.99242e-07
3.98575e-07
3.99053e-07
3.98695e-07
3.98728e-07
3.98314e-07
3.99005e-07
3.98261e-07
3.98843e-07
3.98269e-07
3.99099e-07
3.98321e-07
3.99166e-07
3.97827e-07
4.00053e-07
3.97461e-07
4.00666e-07
3.95941e-07
4.01521e-07
3.67917e-07
4.23297e-07
3.97272e-07
3.98557e-07
3.97777e-07
3.98521e-07
3.98392e-07
3.98446e-07
3.98462e-07
3.98774e-07
3.98331e-07
3.9935e-07
3.97959e-07
3.99492e-07
3.98381e-07
3.98663e-07
3.9747e-07
4.00132e-07
3.98503e-07
3.99263e-07
3.98122e-07
3.9923e-07
3.98175e-07
3.98857e-07
3.98907e-07
3.98652e-07
3.99283e-07
3.99256e-07
3.98758e-07
3.98784e-07
3.98161e-07
3.98967e-07
3.9849e-07
3.99051e-07
3.9816e-07
3.99271e-07
3.98298e-07
3.99144e-07
3.98131e-07
3.98737e-07
3.98359e-07
3.99265e-07
3.98365e-07
3.99187e-07
3.98368e-07
3.98887e-07
3.98186e-07
3.99273e-07
3.98307e-07
3.99598e-07
3.98097e-07
3.99749e-07
3.97168e-07
4.01183e-07
3.96161e-07
4.02212e-07
3.66878e-07
4.22196e-07
3.99012e-07
3.96525e-07
3.98545e-07
3.97757e-07
3.98381e-07
3.9843e-07
3.98605e-07
3.98511e-07
3.98968e-07
3.98172e-07
3.99856e-07
3.98235e-07
3.99212e-07
3.98356e-07
4.00515e-07
3.98119e-07
3.99557e-07
3.9901e-07
4.00019e-07
3.98292e-07
4.00704e-07
3.98863e-07
3.98619e-07
3.98277e-07
3.99431e-07
3.9766e-07
3.99278e-07
3.98194e-07
3.99286e-07
3.98868e-07
3.99351e-07
3.9844e-07
3.98982e-07
3.98449e-07
3.98798e-07
3.98181e-07
3.99314e-07
3.98846e-07
3.99468e-07
3.98653e-07
3.98948e-07
3.98314e-07
3.99106e-07
3.98449e-07
3.9893e-07
3.98404e-07
3.99053e-07
3.98052e-07
3.99332e-07
3.97916e-07
3.99853e-07
3.97144e-07
4.01055e-07
3.96131e-07
4.01993e-07
3.67785e-07
4.22905e-07
3.97664e-07
4.01179e-07
3.96406e-07
3.98753e-07
3.98442e-07
3.98536e-07
3.98545e-07
3.98568e-07
3.98413e-07
3.99577e-07
3.97713e-07
4.00241e-07
3.97598e-07
3.99795e-07
3.98294e-07
3.99844e-07
3.97943e-07
3.98088e-07
3.98035e-07
3.9869e-07
3.984e-07
3.98034e-07
3.98738e-07
3.99839e-07
3.98696e-07
3.99038e-07
3.99447e-07
3.98787e-07
3.98909e-07
3.99089e-07
3.98137e-07
3.98878e-07
3.9843e-07
3.99115e-07
3.98308e-07
3.99084e-07
3.9864e-07
3.99308e-07
3.97857e-07
3.98602e-07
3.98501e-07
3.99008e-07
3.98384e-07
3.9896e-07
3.9834e-07
3.9891e-07
3.98334e-07
3.99205e-07
3.98178e-07
3.99589e-07
3.98262e-07
4.00005e-07
3.97425e-07
4.00764e-07
3.95748e-07
4.02294e-07
3.6773e-07
4.22908e-07
3.98733e-07
3.97347e-07
4.00546e-07
3.98722e-07
3.9853e-07
3.98569e-07
3.98532e-07
3.98418e-07
3.98482e-07
3.98249e-07
3.9998e-07
3.97354e-07
4.00511e-07
3.97666e-07
3.99459e-07
3.98079e-07
3.99269e-07
3.98366e-07
4.01358e-07
3.99062e-07
3.99512e-07
3.98745e-07
3.99524e-07
3.98686e-07
3.99587e-07
3.98525e-07
3.99044e-07
3.98122e-07
3.99442e-07
3.98224e-07
3.99293e-07
3.98592e-07
3.99399e-07
3.98653e-07
3.99229e-07
3.98508e-07
3.99484e-07
3.97789e-07
3.98582e-07
3.98829e-07
3.99229e-07
3.98303e-07
3.99224e-07
3.98452e-07
3.99108e-07
3.98404e-07
3.99039e-07
3.98348e-07
3.99042e-07
3.9848e-07
3.9923e-07
3.97974e-07
3.99935e-07
3.97299e-07
4.00806e-07
3.96146e-07
4.00966e-07
3.67614e-07
4.23185e-07
3.97462e-07
3.98473e-07
3.98743e-07
3.98459e-07
3.98492e-07
3.98525e-07
3.9849e-07
3.98465e-07
3.98375e-07
3.99179e-07
3.97655e-07
4.00338e-07
3.9779e-07
4.01144e-07
3.98683e-07
3.98763e-07
3.98712e-07
3.9966e-07
3.97928e-07
3.98132e-07
3.9828e-07
3.98915e-07
3.98668e-07
3.99135e-07
3.98512e-07
3.98386e-07
3.98821e-07
3.99224e-07
3.98993e-07
3.99168e-07
3.98851e-07
3.98996e-07
3.98482e-07
3.98715e-07
3.98321e-07
3.9911e-07
3.98532e-07
3.98649e-07
3.98864e-07
3.99765e-07
3.97843e-07
3.98866e-07
3.98438e-07
3.98802e-07
3.98208e-07
3.99072e-07
3.98146e-07
3.98771e-07
3.98225e-07
3.99151e-07
3.98152e-07
3.99279e-07
3.98407e-07
3.99855e-07
3.97828e-07
4.00677e-07
3.9633e-07
4.01999e-07
3.66673e-07
4.22228e-07
3.99203e-07
3.98284e-07
3.97876e-07
3.98436e-07
3.98473e-07
3.9838e-07
3.98476e-07
3.98435e-07
3.98752e-07
3.98278e-07
3.99945e-07
3.97758e-07
3.99603e-07
3.97615e-07
3.99326e-07
3.97881e-07
3.99796e-07
3.98287e-07
3.9961e-07
3.98903e-07
4.0018e-07
3.98994e-07
3.99779e-07
3.98405e-07
3.99339e-07
3.98895e-07
3.99639e-07
3.98468e-07
3.98624e-07
3.98493e-07
4.00082e-07
3.98642e-07
3.99164e-07
3.98396e-07
3.99386e-07
3.98597e-07
3.99225e-07
3.98347e-07
3.99612e-07
3.97649e-07
3.98677e-07
3.98828e-07
3.99107e-07
3.98203e-07
3.99366e-07
3.98473e-07
3.99057e-07
3.98273e-07
3.99144e-07
3.98444e-07
3.98984e-07
3.98179e-07
3.99067e-07
3.98173e-07
3.9949e-07
3.97632e-07
4.00485e-07
3.95919e-07
4.0153e-07
3.6782e-07
4.22634e-07
3.97818e-07
3.98391e-07
3.98414e-07
3.98834e-07
3.98528e-07
3.98453e-07
3.98519e-07
3.98428e-07
3.98312e-07
3.99247e-07
3.97423e-07
3.99897e-07
3.97589e-07
3.99923e-07
3.98298e-07
4.00618e-07
3.98491e-07
3.98864e-07
3.98541e-07
3.99108e-07
3.97775e-07
3.99168e-07
3.979e-07
3.98937e-07
3.9898e-07
3.98865e-07
3.98808e-07
3.98698e-07
3.98828e-07
3.98464e-07
3.98669e-07
3.9803e-07
3.98592e-07
3.98985e-07
3.98696e-07
3.98856e-07
3.98382e-07
3.98981e-07
3.98548e-07
3.98944e-07
3.98931e-07
3.99308e-07
3.98065e-07
3.98921e-07
3.98241e-07
3.98989e-07
3.98191e-07
3.98915e-07
3.9821e-07
3.98884e-07
3.98303e-07
3.99469e-07
3.9836e-07
3.99328e-07
3.98465e-07
3.98989e-07
3.97956e-07
4.00899e-07
3.9632e-07
4.01901e-07
3.67516e-07
4.22384e-07
3.98789e-07
3.98773e-07
3.99114e-07
3.984e-07
3.98461e-07
3.98398e-07
3.98496e-07
3.98469e-07
3.98564e-07
3.98504e-07
4.00225e-07
3.97375e-07
4.00482e-07
3.97047e-07
4.00033e-07
3.97808e-07
4.00511e-07
3.97924e-07
3.99488e-07
3.98677e-07
4e-07
3.98517e-07
3.99683e-07
3.98779e-07
3.99846e-07
3.98707e-07
3.99508e-07
3.98884e-07
3.99311e-07
3.98366e-07
3.99692e-07
3.98791e-07
3.99744e-07
3.98481e-07
3.99018e-07
3.98317e-07
3.99472e-07
3.98397e-07
3.99208e-07
3.97999e-07
3.99509e-07
3.97792e-07
3.98923e-07
3.98572e-07
3.99342e-07
3.98212e-07
3.99282e-07
3.98434e-07
3.99002e-07
3.98354e-07
3.99025e-07
3.98375e-07
3.99036e-07
3.97923e-07
3.98966e-07
3.98341e-07
3.99841e-07
3.97414e-07
4.00365e-07
3.96471e-07
4.0107e-07
3.68182e-07
4.23176e-07
3.97885e-07
3.98366e-07
3.97497e-07
3.98528e-07
3.98371e-07
3.98552e-07
3.98433e-07
3.98444e-07
3.98476e-07
3.99e-07
3.97817e-07
4.00222e-07
3.97658e-07
4.00791e-07
3.9867e-07
3.99792e-07
3.9845e-07
3.99444e-07
3.9882e-07
3.99187e-07
3.98162e-07
3.98902e-07
3.98729e-07
3.98897e-07
3.98575e-07
3.9856e-07
3.98807e-07
3.98516e-07
3.98807e-07
3.98737e-07
3.98747e-07
3.98251e-07
3.98856e-07
3.98513e-07
3.98758e-07
3.9933e-07
3.98646e-07
3.99242e-07
3.98411e-07
3.98793e-07
3.98773e-07
3.99114e-07
3.98655e-07
3.99141e-07
3.98301e-07
3.99021e-07
3.98057e-07
3.98869e-07
3.98227e-07
3.98935e-07
3.98201e-07
3.98769e-07
3.98357e-07
3.99417e-07
3.98153e-07
3.99401e-07
3.98381e-07
3.99233e-07
3.97971e-07
4.00581e-07
3.96395e-07
4.01893e-07
3.6777e-07
4.21681e-07
3.98555e-07
3.97989e-07
3.99168e-07
3.98493e-07
3.98549e-07
3.98211e-07
3.98448e-07
3.98505e-07
3.98579e-07
3.98573e-07
3.9952e-07
3.98208e-07
3.99811e-07
3.98087e-07
3.99682e-07
3.98031e-07
3.99911e-07
3.97632e-07
4.00068e-07
3.98724e-07
3.98965e-07
3.98888e-07
3.99114e-07
3.98395e-07
3.99431e-07
3.98405e-07
3.99743e-07
3.98655e-07
3.99607e-07
3.98664e-07
3.99316e-07
3.98658e-07
3.99876e-07
3.98694e-07
3.99227e-07
3.98426e-07
3.98691e-07
3.98422e-07
3.98876e-07
3.98559e-07
3.99259e-07
3.97984e-07
3.99136e-07
3.98011e-07
3.98903e-07
3.98443e-07
3.99378e-07
3.98355e-07
3.99088e-07
3.98569e-07
3.98999e-07
3.98465e-07
3.99046e-07
3.98368e-07
3.99123e-07
3.98022e-07
3.98917e-07
3.98341e-07
3.99534e-07
3.97771e-07
4.00554e-07
3.9653e-07
4.01214e-07
3.68327e-07
4.22737e-07
3.97729e-07
3.9881e-07
3.97884e-07
3.98601e-07
3.97635e-07
3.98463e-07
3.98566e-07
3.98438e-07
3.98456e-07
3.99144e-07
3.98062e-07
3.9946e-07
3.97649e-07
4.00235e-07
3.97893e-07
3.99264e-07
3.9816e-07
4.0031e-07
3.98893e-07
3.99067e-07
3.98954e-07
3.99336e-07
3.98731e-07
3.99404e-07
3.98524e-07
3.99139e-07
3.98682e-07
3.98719e-07
3.99176e-07
3.98464e-07
3.9904e-07
3.98638e-07
3.98747e-07
3.97694e-07
3.98737e-07
3.98927e-07
3.98837e-07
3.99497e-07
3.98919e-07
3.98414e-07
3.98714e-07
3.98774e-07
3.98795e-07
3.99027e-07
3.98717e-07
3.99092e-07
3.98255e-07
3.99224e-07
3.97987e-07
3.98688e-07
3.98156e-07
3.98812e-07
3.98215e-07
3.98724e-07
3.98389e-07
3.99303e-07
3.98326e-07
3.99076e-07
3.98333e-07
3.99384e-07
3.97434e-07
4.00576e-07
3.96815e-07
4.02528e-07
3.68068e-07
4.2172e-07
3.98643e-07
3.97682e-07
3.98592e-07
3.97515e-07
3.992e-07
3.98601e-07
3.98462e-07
3.9847e-07
3.98497e-07
3.98352e-07
3.99758e-07
3.97937e-07
3.99991e-07
3.97741e-07
3.99828e-07
3.97807e-07
4.00141e-07
3.97696e-07
3.98563e-07
3.97839e-07
3.99496e-07
3.98124e-07
3.99192e-07
3.98338e-07
3.99028e-07
3.98705e-07
3.99052e-07
3.98659e-07
3.99732e-07
3.98994e-07
3.99503e-07
3.98937e-07
3.99221e-07
3.98613e-07
3.99562e-07
3.98352e-07
3.98909e-07
3.98452e-07
3.9856e-07
3.98562e-07
3.99563e-07
3.98439e-07
3.9941e-07
3.9811e-07
3.99029e-07
3.98038e-07
3.99079e-07
3.98361e-07
3.99261e-07
3.98381e-07
3.99079e-07
3.98573e-07
3.99097e-07
3.98204e-07
3.99168e-07
3.98361e-07
3.99258e-07
3.98316e-07
3.99206e-07
3.98017e-07
3.99836e-07
3.97801e-07
4.00633e-07
3.95688e-07
4.02162e-07
3.68397e-07
4.22206e-07
3.9779e-07
3.9885e-07
3.98393e-07
3.99613e-07
3.98459e-07
3.98343e-07
3.98506e-07
3.98428e-07
3.98469e-07
3.99101e-07
3.97612e-07
3.99793e-07
3.97744e-07
4.00216e-07
3.9812e-07
4.0043e-07
3.9856e-07
3.99435e-07
3.98922e-07
4.00246e-07
3.98688e-07
3.99811e-07
3.99404e-07
3.99453e-07
3.99019e-07
3.99119e-07
3.98866e-07
3.99262e-07
3.98799e-07
3.98335e-07
3.98634e-07
3.98693e-07
3.98444e-07
3.98708e-07
3.98808e-07
3.98223e-07
3.99093e-07
3.98945e-07
3.98883e-07
3.99177e-07
3.9885e-07
3.9805e-07
3.98568e-07
3.98818e-07
3.98681e-07
3.9922e-07
3.9854e-07
3.98946e-07
3.98324e-07
3.99135e-07
3.97981e-07
3.98691e-07
3.98247e-07
3.98938e-07
3.98264e-07
3.9879e-07
3.98296e-07
3.99214e-07
3.98106e-07
3.99264e-07
3.98283e-07
3.99296e-07
3.97771e-07
4.00766e-07
3.95826e-07
4.03157e-07
3.67969e-07
4.21601e-07
3.98782e-07
3.9776e-07
3.98308e-07
3.97984e-07
3.98324e-07
3.98425e-07
3.98453e-07
3.98367e-07
3.98466e-07
3.98543e-07
3.99802e-07
3.97907e-07
3.99537e-07
3.98192e-07
4.00017e-07
3.97913e-07
3.99669e-07
3.98564e-07
3.99738e-07
3.98e-07
3.99841e-07
3.97781e-07
3.99218e-07
3.97725e-07
3.98758e-07
3.9859e-07
3.99128e-07
3.98615e-07
3.9904e-07
3.98751e-07
3.9969e-07
3.99344e-07
3.9919e-07
3.99379e-07
3.99209e-07
3.98669e-07
3.99188e-07
3.98254e-07
3.98877e-07
3.98472e-07
3.98848e-07
3.98606e-07
3.99385e-07
3.98592e-07
3.99381e-07
3.98192e-07
3.98984e-07
3.9823e-07
3.99033e-07
3.98354e-07
3.99222e-07
3.98504e-07
3.98927e-07
3.9845e-07
3.98977e-07
3.98185e-07
3.99154e-07
3.98363e-07
3.99555e-07
3.98316e-07
3.99416e-07
3.98092e-07
3.99604e-07
3.97455e-07
4.0119e-07
3.95694e-07
4.03564e-07
3.68341e-07
4.22648e-07
3.97912e-07
3.99508e-07
3.98412e-07
3.98408e-07
3.98487e-07
3.98503e-07
3.98521e-07
3.98387e-07
3.98457e-07
3.98742e-07
3.9826e-07
3.99943e-07
3.98005e-07
3.99987e-07
3.98439e-07
3.99971e-07
3.98645e-07
3.99614e-07
3.98481e-07
3.9942e-07
3.99179e-07
3.99137e-07
3.98787e-07
3.9911e-07
4.00192e-07
3.99566e-07
3.9869e-07
3.99223e-07
3.98848e-07
3.99132e-07
3.99012e-07
3.98357e-07
3.98408e-07