/*--------------------------------*- C++ -*----------------------------------*\
| =========                 |                                                 |
| \\      /  F ield         | OpenFOAM: The Open Source CFD Toolbox           |
|  \\    /   O peration     | Version:  2206                                  |
|   \\  /    A nd           | Website:  www.openfoam.com                      |
|    \\/     M anipulation  |                                                 |
\*---------------------------------------------------------------------------*/
FoamFile
{
    version     2.0;
    format      ascii;
    arch        "LSB;label=32;scalar=64";
    class       volScalarField;
    location    "190";
    object      p;
}
// * * * * * * * * * * * * * * * * * * * * * * * * * * * * * * * * * * * * * //

dimensions      [1 -1 -2 0 0 0 0];

internalField   nonuniform List<scalar> 
93840
(
2.62482
0.494251
2.63066
1.542
0.511609
2.44889
0.553183
1.22171
0.616922
2.08865
1.18311
0.972558
1.21353
0.731521
1.89046
0.984001
1.09847
0.97417
1.33263
0.795147
1.80967
1.10642
0.969287
1.14646
0.781358
1.24433
0.78889
1.83468
0.99081
1.10629
0.965147
1.15819
0.844128
1.21848
0.815985
1.85299
1.09837
0.981469
1.147
1.0087
1.10889
0.857883
1.11828
0.803678
1.87654
0.994307
1.0979
0.97327
1.10899
0.995861
1.06174
0.981721
1.08289
0.802107
1.89146
1.09789
0.983692
1.14997
1.00261
1.08909
0.992391
1.02601
0.974773
1.0721
0.799661
1.90507
0.997068
1.09996
0.979601
1.10496
0.999597
1.05006
0.99492
1.03487
0.990936
1.05972
0.798437
1.91196
1.09557
0.990201
1.14633
1.00838
1.08849
0.991542
1.03807
0.980704
1.0236
0.978269
1.05859
0.798431
1.91995
0.996713
1.09692
0.9876
1.10321
0.998477
1.05488
1.00156
1.04433
0.986159
1.02799
0.987919
1.05501
0.798725
1.92496
1.09545
0.986119
1.14038
1.00783
1.09186
0.993524
1.04699
0.987202
1.03324
0.976572
1.0264
0.981282
1.0542
0.79883
1.93011
0.994682
1.09738
0.995765
1.10388
1.00361
1.05802
0.992891
1.05484
0.979525
1.04489
0.975909
1.02694
0.991361
1.05207
0.799244
1.93315
1.09263
0.982502
1.13642
1.01034
1.09036
0.998647
1.04911
1.00178
1.04564
0.988316
1.02943
0.977109
1.02606
0.980437
1.051
0.799815
1.93659
0.98802
1.09569
1.00202
1.1052
1.0111
1.06568
0.989306
1.07108
0.971494
1.04983
0.97071
1.02638
0.97941
1.02962
0.990467
1.04959
0.800288
1.93867
1.1021
0.985827
1.13427
1.00794
1.09033
1.00072
1.05356
1.01171
1.0572
0.995907
1.03787
0.982399
1.03038
0.977515
1.02607
0.980356
1.04905
0.800881
1.94095
0.989831
1.09662
1.00492
1.1056
1.01999
1.06876
0.982964
1.05965
0.986746
1.04729
0.959658
1.05409
0.970244
1.03384
0.984474
1.02496
0.988242
1.0481
0.80171
1.94228
1.09638
0.992336
1.1314
1.01066
1.09006
1.00291
1.05932
1.00773
1.05833
1.0134
1.05695
0.995414
1.03249
0.986135
1.02895
0.985884
1.02046
0.979199
1.04779
0.802393
1.94382
0.988889
1.08937
1.00796
1.1039
1.01989
1.07103
0.981983
1.05128
0.992372
1.05394
0.969344
1.05404
0.969003
1.04523
0.983471
1.02598
0.977517
1.02836
0.986773
1.04705
0.803257
1.94483
1.0818
0.988018
1.13088
1.01501
1.08934
1.01416
1.0565
0.995273
1.06234
1.00809
1.05894
0.989379
1.04024
0.992171
1.03413
0.997878
1.02159
0.982461
1.01761
0.976457
1.04697
0.804309
1.94593
0.981562
1.08348
1.00894
1.10182
1.01265
1.0738
0.978091
1.05709
1.00669
1.05971
0.995035
1.04521
0.978297
1.05172
0.978455
1.04166
0.970506
1.02862
0.981841
1.02352
0.982844
1.04639
0.805129
1.94662
1.09136
0.970675
1.13862
1.0215
1.09115
1.02151
1.05476
0.99537
1.05714
1.00218
1.05956
1.00196
1.05959
1.00386
1.03121
0.998978
1.03145
0.997541
1.01851
0.98187
1.01583
0.975461
1.04651
0.80632
1.94753
0.97834
1.08681
1.02396
1.09989
1.0124
1.0741
0.982168
1.05815
1.00201
1.05949
0.988589
1.05985
0.990903
1.04452
0.992717
1.03609
0.979834
1.03977
0.97476
1.02868
0.980718
1.02132
0.981382
1.04606
0.807449
1.94788
1.09035
0.98736
1.12356
1.01834
1.09061
1.02909
1.0534
1.00247
1.04824
0.993963
1.06608
0.991275
1.06136
1.00567
1.04464
1.0067
1.02953
1.00002
1.02775
0.990038
1.01898
0.983024
1.0141
0.972878
1.04628
0.808671
1.94807
0.988509
1.07867
1.02115
1.10458
1.01512
1.07725
0.990554
1.04806
0.991494
1.06611
0.998827
1.06963
0.982713
1.05302
0.997397
1.03892
0.984458
1.03495
0.986788
1.0349
0.972203
1.02803
0.978959
1.02201
0.981044
1.04592
0.810317
1.94801
1.08039
0.987978
1.11763
1.02421
1.08904
1.03326
1.05373
0.994769
1.05075
1.00189
1.06236
1.00344
1.06724
1.00434
1.05107
1.01124
1.0412
1.00461
1.02642
1.00244
1.02475
0.989919
1.01851
0.979264
1.01589
0.971553
1.04626
0.811525
1.94811
0.977185
1.06957
1.0168
1.10522
1.01731
1.07875
0.999596
1.05242
0.995603
1.05031
0.995868
1.07163
0.994502
1.06517
0.991448
1.04521
0.995269
1.03613
0.976334
1.02396
0.992873
1.02508
0.976123
1.01852
0.970813
1.02229
0.975506
1.04625
0.813675
1.94766
1.0788
0.983169
1.12506
1.03285
1.09438
1.03764
1.06032
0.993444
1.04753
1.00977
1.05978
1.00581
1.06243
1.00702
1.05816
1.01428
1.04001
1.00321
1.03558
1.00433
1.02014
0.998578
1.01859
0.986166
1.01588
0.973442
1.01838
0.970223
1.04682
0.814586
1.94707
0.979489
1.06397
1.02167
1.09848
1.0188
1.07402
1.00552
1.0454
0.998073
1.04114
1.00621
1.05301
1.00588
1.06292
0.999535
1.05594
1.00208
1.03775
0.998554
1.03212
0.994211
1.01161
0.993329
1.02694
0.974752
1.02437
0.969115
1.0229
0.972022
1.04707
0.817976
1.94593
1.08001
0.973835
1.1204
1.03206
1.10071
1.0401
1.06326
1.009
1.05146
0.999493
1.04641
1.00314
1.05458
1.01362
1.05863
1.00945
1.05146
1.01486
1.03777
1.00127
1.02685
1.00156
1.01296
0.98974
1.02678
0.97845
1.02543
0.970028
1.01944
0.968646
1.04787
0.818733
1.94555
0.976969
1.06792
1.02047
1.09773
1.02805
1.07341
1.01658
1.04837
0.993466
1.04419
1.00159
1.04283
0.990271
1.04746
1.00295
1.05628
1.00175
1.0463
0.995639
1.03148
1.00257
1.02209
0.992981
1.01802
0.984592
1.0279
0.969965
1.02414
0.966961
1.02008
0.970329
1.04891
0.822732
1.94604
1.0769
0.97116
1.11188
1.03373
1.10478
1.03927
1.06626
1.01791
1.05375
1.00754
1.04036
1.00261
1.05537
1.0031
1.0518
1.00577
1.05467
1.00591
1.04858
1.00718
1.02978
1.00367
1.02019
0.996346
1.02393
0.980271
1.02558
0.984925
1.02311
0.965649
1.01703
0.969621
1.05371
0.801366
1.9454
0.975693
1.0656
1.01749
1.0999
1.03737
1.0761
1.02229
1.05534
1.00433
1.04128
0.994214
1.04425
0.994259
1.05378
1.00082
1.04747
0.997833
1.05578
0.996253
1.04321
0.999621
1.02717
1.00081
1.01691
0.989914
1.02595
0.975156
1.02013
0.975874
1.01988
0.961243
1.022
0.967636
1.07623
0.80504
1.94454
1.0833
0.975723
1.10458
1.03569
1.10377
1.03643
1.07107
1.01944
1.05287
1.00913
1.04779
1.00052
1.04624
1.00059
1.05467
1.00431
1.05685
0.996583
1.05716
1.00317
1.04049
1.00624
1.02974
1.00255
1.01334
0.989811
1.02888
0.987867
1.01718
0.981123
1.02182
0.961673
1.01881
0.956958
1.07231
0.811422
1.94364
0.974034
1.06703
1.01292
1.0998
1.03743
1.07283
1.03096
1.06036
1.01945
1.04409
0.989477
1.04031
0.986682
1.04982
0.998448
1.04935
0.99708
1.05214
0.990319
1.05348
0.993243
1.03996
0.997179
1.02286
0.999247
1.01091
0.983616
1.02837
0.990521
1.01394
0.969461
1.02234
0.959263
1.01768
0.965774
1.06828
0.813848
1.94331
1.08797
0.968876
1.10956
1.03603
1.10526
1.04417
1.07058
1.01606
1.05729
0.998633
1.04425
0.991752
1.04704
0.997441
1.05012
0.999378
1.04986
0.99407
1.05926
0.997008
1.05392
0.999555
1.03673
1.00529
1.02285
1.00367
1.01235
0.985573
1.02577
0.991723
1.01764
0.975866
1.03086
0.957731
1.02572
0.965803
1.06597
0.819616
1.94337
0.977054
1.07412
1.02512
1.09249
1.03976
1.07368
1.03555
1.06125
1.02891
1.03952
1.00347
1.0377
0.99226
1.04143
0.991791
1.05045
1.0017
1.04784
0.990524
1.0572
0.988029
1.04964
0.995177
1.03571
0.99942
1.02025
0.99472
1.01648
0.983206
1.02437
0.985287
1.01373
0.96963
1.03019
0.955875
1.02293
0.968059
1.06876
0.798294
1.94289
1.09079
1.00212
1.08919
1.02969
1.1086
1.0496
1.07211
1.01923
1.06164
1.00208
1.06004
0.989436
1.04682
0.990084
1.04952
1.00591
1.04828
0.99843
1.04807
0.999959
1.05878
0.997558
1.04743
1.00804
1.03264
1.00378
1.01857
0.996599
1.02079
0.987773
1.02414
0.984799
1.01613
0.963677
1.03898
0.955235
1.02836
0.965217
1.08796
0.804273
1.9421
0.990443
1.05169
1.01592
1.09808
1.04595
1.07493
1.04074
1.05919
1.02642
1.0368
1.00474
1.04501
0.994551
1.03441
0.99646
1.03913
1.00038
1.04734
0.99842
1.04648
0.993137
1.05503
1.00102
1.04442
1.00195
1.02903
1.00194
1.01582
0.993444
1.02149
0.98705
1.02283
0.98232
1.01946
0.959085
1.03498
0.955209
1.02429
0.960268
1.08352
0.809438
1.9413
1.08744
1.0034
1.09172
1.03786
1.10503
1.05431
1.07778
1.0183
1.07588
1.00821
1.06109
0.997404
1.05169
0.996404
1.0461
0.998137
1.04023
1.00635
1.04389
1.00058
1.04393
0.999968
1.05306
1.01023
1.04093
1.01589
1.02509
1.00876
1.01688
0.990399
1.02244
0.988094
1.02077
0.983958
1.02031
0.956875
1.03863
0.956004
1.03364
0.960766
1.07915
0.814759
1.94039
1.00317
1.04612
1.00739
1.09278
1.04962
1.07806
1.04708
1.05856
1.02964
1.03853
1.02157
1.03977
0.998328
1.04813
0.994151
1.03214
1.00192
1.03579
0.99961
1.04464
1.00164
1.04547
1.00241
1.05043
1.00914
1.03696
1.0082
1.02121
0.999336
1.01598
0.988508
1.02599
0.983078
1.01744
0.980035
1.02393
0.954467
1.03588
0.956402
1.02921
0.970519
1.07408
0.818436
1.93999
1.07796
1.0033
1.09513
1.03897
1.10428
1.05693
1.07553
1.01892
1.07605
1.03381
1.05648
1.00148
1.05619
0.994784
1.04634
0.998944
1.0426
1.00084
1.03267
1.00342
1.03933
1.00566
1.04219
1.00753
1.04816
1.01706
1.03319
1.01959
1.01814
1.00198
1.01628
0.985835
1.02677
0.989603
1.0165
0.975626
1.02311
0.951654
1.03752
0.956266
1.03478
0.966456
1.07092
0.822661
1.93985
1.0078
1.04085
1.0134
1.08949
1.05156
1.07836
1.05394
1.05945
1.04435
1.03657
1.02308
1.03242
1.01365
1.03787
1.00455
1.04502
0.99529
1.03209
1.00155
1.03159
0.999141
1.04012
1.00416
1.04663
1.00777
1.0457
1.019
1.02954
1.01112
1.01481
1.00004
1.01421
0.984419
1.02591
0.985273
1.02063
0.971713
1.02622
0.955357
1.03764
0.954554
1.03436
0.969811
1.07386
0.805137
1.93891
1.06593
0.993124
1.08162
1.03462
1.10172
1.05724
1.07802
1.02529
1.08044
1.02717
1.05428
1.01481
1.03559
0.996579
1.03645
0.996074
1.04214
0.998968
1.03976
0.996643
1.03273
1.00528
1.03861
1.00694
1.04534
1.01085
1.0413
1.02183
1.02608
1.01369
1.01212
0.998716
1.01956
0.984543
1.02421
0.985572
1.02332
0.968577
1.02968
0.954698
1.04106
0.956547
1.03774
0.972859
1.08998
0.809096
1.9378
0.997151
1.0485
0.999019
1.08862
1.05237
1.07675
1.05871
1.05497
1.04906
1.04337
1.03455
1.0376
1.02657
1.03326
1.01254
1.03751
1.00208
1.03789
0.986404
1.03524
0.997656
1.03223
0.99931
1.04023
1.00139
1.04818
1.01546
1.03791
1.02089
1.02359
1.01141
1.00976
0.995878
1.02069
0.986526
1.02384
0.984853
1.02673
0.965475
1.03253
0.956103
1.04162
0.959199
1.03547
0.963515
1.08561
0.81597
1.93672
1.07141
0.978921
1.08042
1.0419
1.09962
1.06154
1.0817
1.02502
1.08159
1.02674
1.05623
1.01775
1.03696
1.00982
1.03045
1.00921
1.03117
0.999356
1.03949
0.995479
1.0445
0.995422
1.03413
1.00393
1.03711
1.00345
1.0451
1.01604
1.0358
1.02066
1.02115
1.01011
1.00956
0.993539
1.02156
0.987723
1.02066
0.983476
1.02665
0.965672
1.03682
0.958926
1.04719
0.962004
1.0415
0.966923
1.08067
0.81856
1.93615
0.98495
1.06153
0.995788
1.08533
1.05078
1.07948
1.06143
1.05651
1.04675
1.04916
1.03575
1.03875
1.02865
1.03377
1.02192
1.02371
1.00926
1.03654
1.00131
1.03865
0.995419
1.0368
0.994469
1.03376
0.999786
1.04035
1.00096
1.04607
1.01601
1.03281
1.01776
1.0187
1.00783
1.0118
0.989894
1.02173
0.988457
1.02201
0.980708
1.03087
0.96177
1.03923
0.96164
1.04574
0.956732
1.03873
0.971027
1.07747
0.824635
1.93572
1.0909
0.987163
1.08984
1.04544
1.09656
1.06962
1.085
1.02138
1.09567
1.02756
1.06057
1.01683
1.04105
1.01238
1.0323
1.00805
1.01775
1.0043
1.03804
0.995373
1.03659
0.996807
1.04598
0.995031
1.03481
1.00104
1.04014
1.0045
1.04484
1.0165
1.03033
1.01568
1.0163
1.00523
1.01624
0.98762
1.0249
0.989011
1.02085
0.980978
1.03244
0.965685
1.04167
0.961265
1.05064
0.959646
1.04456
0.971101
1.07988
0.805995
1.93502
0.999322
1.06477
1.013
1.0767
1.04745
1.07997
1.06056
1.06163
1.05347
1.05822
1.036
1.04613
1.02596
1.03518
1.01706
1.0269
1.00844
1.03133
1.00146
1.03521
1.00456
1.03474
0.994665
1.03608
0.995934
1.03399
0.999289
1.04094
1.00303
1.04337
1.01252
1.02906
1.01236
1.01641
1.00228
1.02101
0.985678
1.02453
0.988658
1.02093
0.977594
1.0374
0.965896
1.04195
0.95778
1.04941
0.961658
1.04367
0.974289
1.09412
0.81221
1.93412
1.0922
0.99195
1.07215
1.03435
1.09496
1.07788
1.08454
1.02149
1.09048
1.02822
1.05738
1.01018
1.0457
1.02161
1.02983
1.01401
1.02734
1.00303
1.02725
0.998605
1.03213
0.999605
1.03291
0.995377
1.04033
0.996106
1.03476
1.00178
1.04051
1.0058
1.04319
1.01391
1.02953
1.00866
1.01715
0.999393
1.02676
0.9839
1.02901
0.988811
1.02193
0.980597
1.03977
0.968176
1.0461
0.957127
1.05574
0.962429
1.0433
0.968152
1.08966
0.816279
1.93327
1.00801
1.06587
1.00501
1.08297
1.04952
1.07976
1.06036
1.06899
1.05498
1.0595
1.03988
1.05958
1.02985
1.04425
1.02659
1.03142
1.00975
1.02988
1.00732
1.02859
0.998287
1.03283
1.00293
1.03238
0.995215
1.03716
0.996761
1.03155
0.999673
1.03845
1.00698
1.04192
1.00977
1.03056
1.00515
1.02067
0.996607
1.02747
0.985497
1.02391
0.990297
1.02275
0.979954
1.04248
0.965357
1.04703
0.963744
1.05191
0.963573
1.04359
0.97132
1.08557
0.821661
1.93228
1.09227
0.999493
1.07548
1.03355
1.09357
1.08035
1.08473
1.02173
1.09325
1.02937
1.08083
1.01415
1.06025
1.02366
1.04058
1.02038
1.02905
1.00236
1.03554
0.997794
1.03125
0.995486
1.02837
0.999715
1.03037
0.995602
1.03327
0.996974
1.03462
0.998685
1.03503
1.00785
1.04005
1.00866
1.03404
1.00225
1.02079
0.994039
1.02768
0.985931
1.02476
0.98897
1.02354
0.984644
1.04503
0.965812
1.05344
0.966888
1.0577
0.965669
1.04314
0.971613
1.08148
0.824466
1.93125
1.00946
1.06847
1.00697
1.08163
1.05071
1.0792
1.06007
1.075
1.04712
1.07303
1.03043
1.05877
1.03008
1.04872
1.03126
1.03664
1.01372
1.04305
1.00819
1.03128
0.998206
1.03444
0.995681
1.02864
1.00346
1.02917
0.999829
1.03244
0.995941
1.0311
1.00279
1.03401
1.00346
1.04019
1.00602
1.03786
1.00028
1.02463
0.994849
1.0234
0.983623
1.02415
0.990209
1.0262
0.9829
1.04326
0.965706
1.05195
0.971215
1.05039
0.967605
1.04416
0.978864
1.07727
0.829817
1.92969
1.09359
1.01576
1.07074
1.02885
1.09168
1.08314
1.08702
1.02029
1.09568
1.03354
1.08624
1.02462
1.07132
1.02291
1.05663
1.02323
1.03934
1.01037
1.03262
0.999866
1.03179
0.997976
1.03735
0.992558
1.02894
0.998408
1.02926
0.997088
1.03271
0.994779
1.03486
1.00204
1.03223
1.00273
1.04144
1.00372
1.04015
0.999455
1.02838
0.992724
1.02784
0.981732
1.02527
0.988399
1.02637
0.985153
1.04471
0.967587
1.05135
0.974035
1.05364
0.97031
1.04186
0.97485
1.07386
0.831552
1.9284
1.01236
1.06349
1.0137
1.08233
1.04921
1.0767
1.0601
1.07791
1.04433
1.07796
1.04137
1.06598
1.02859
1.05733
1.0267
1.04585
1.0274
1.04875
1.00978
1.0364
1.00019
1.03051
0.998006
1.03707
0.991375
1.02841
0.997454
1.03195
0.995499
1.03156
0.993533
1.03323
0.999679
1.03395
1.00038
1.04352
0.99959
1.03954
0.998142
1.02832
0.990433
1.02777
0.979326
1.02335
0.989557
1.02813
0.984831
1.04304
0.972161
1.04967
0.978279
1.04841
0.971972
1.04102
0.984579
1.07152
0.836751
1.92783
1.0945
1.02329
1.06183
1.0274
1.09046
1.08475
1.08779
1.02606
1.09582
1.03509
1.08551
1.02549
1.07049
1.03108
1.06018
1.03304
1.05033
1.02104
1.04305
1.00858
1.04053
1.00511
1.02674
0.994965
1.0393
0.988193
1.03195
0.995057
1.03192
0.993692
1.03215
0.992431
1.03677
0.998157
1.03485
0.997817
1.04529
1.0031
1.0385
0.997948
1.0287
0.988626
1.0279
0.977871
1.02659
0.987775
1.02991
0.984217
1.04582
0.976383
1.04801
0.980378
1.04727
0.97629
1.03961
0.975357
1.07338
0.821501
1.92654
1.02861
1.05044
1.00914
1.08899
1.05371
1.07623
1.06134
1.08039
1.05053
1.0801
1.04645
1.07231
1.04206
1.06556
1.03305
1.05808
1.02976
1.04295
1.02266
1.04146
1.00236
1.0395
1.00545
1.02919
0.992567
1.04195
0.985809
1.03541
0.992516
1.03405
0.992042
1.03138
0.991483
1.03485
0.996513
1.03551
0.9957
1.04306
1.00653
1.0368
0.998711
1.02892
0.987526
1.02858
0.976133
1.02294
0.988119
1.03117
0.983065
1.04415
0.981366
1.04665
0.985233
1.04569
0.977353
1.04001
0.986482
1.08742
0.825826
1.9252
1.08861
1.03109
1.05593
1.0294
1.08356
1.08427
1.08717
1.02395
1.09315
1.04106
1.07901
1.03531
1.07135
1.03595
1.06517
1.03581
1.05473
1.03471
1.05193
1.01908
1.04696
1.00884
1.03711
1.00387
1.02698
0.989848
1.04488
0.983264
1.03858
0.990993
1.03398
0.991342
1.03305
0.98911
1.03892
0.995415
1.03424
0.995667
1.04176
1.00761
1.0344
0.999045
1.02991
0.985041
1.02836
0.974429
1.02588
0.98554
1.03105
0.982669
1.0454
0.983572
1.04507
0.984069
1.04463
0.979938
1.0381
0.971273
1.08406
0.83012
1.92372
1.03463
1.04245
1.01054
1.08641
1.05557
1.07563
1.05871
1.08307
1.04549
1.07365
1.05718
1.06981
1.04488
1.06756
1.04589
1.06161
1.03828
1.05155
1.03185
1.04685
1.01624
1.0446
1.01313
1.03511
1.00235
1.03607
0.985775
1.04541
0.983197
1.04112
0.989675
1.0331
0.991279
1.03176
0.990433
1.0371
0.99356
1.03836
0.99965
1.03993
1.00941
1.0324
0.998083
1.02821
0.982922
1.02976
0.972563
1.02168
0.986005
1.03118
0.984969
1.04567
0.985027
1.04306
0.989883
1.0427
0.980722
1.03804
0.984475
1.08001
0.833317
1.9224
1.0833
1.02795
1.04588
1.03732
1.08043
1.08264
1.08924
1.0313
1.09602
1.05297
1.08446
1.04551
1.07164
1.04032
1.06442
1.04002
1.05916
1.03655
1.04905
1.02496
1.04888
1.01758
1.04403
1.01377
1.0359
1.0009
1.03884
0.985477
1.04641
0.981331
1.04266
0.988354
1.03502
0.989116
1.03391
0.989159
1.04016
0.993344
1.03738
1.00144
1.03827
1.01007
1.03111
0.997111
1.02928
0.980877
1.03079
0.970218
1.02703
0.984623
1.03031
0.985875
1.04418
0.98815
1.04083
0.991836
1.04058
0.984851
1.03647
0.977904
1.07717
0.837361
1.92083
1.03495
1.03832
0.999036
1.09659
1.04913
1.07528
1.05496
1.08364
1.05267
1.07456
1.05126
1.06503
1.04524
1.06445
1.05045
1.06133
1.04942
1.05636
1.03846
1.05304
1.03232
1.04622
1.02165
1.04231
1.01301
1.0383
0.999974
1.04035
0.985616
1.04543
0.983723
1.04381
0.987649
1.03491
0.9908
1.03377
0.988738
1.03869
0.992885
1.03918
1.00297
1.037
1.00788
1.03009
0.996353
1.0299
0.978393
1.03248
0.968195
1.0239
0.984578
1.03141
0.987793
1.04373
0.99083
1.03909
0.9945
1.03997
0.983786
1.03431
0.984604
1.07922
0.823152
1.91971
1.07604
1.0158
1.06016
1.05292
1.07456
1.08198
1.08768
1.03104
1.09472
1.05667
1.07506
1.04403
1.06936
1.04572
1.06429
1.04525
1.05869
1.03973
1.05376
1.03514
1.04815
1.02283
1.04723
1.02094
1.0409
1.01189
1.03976
0.999709
1.03963
0.987426
1.04772
0.983814
1.04443
0.98628
1.03685
0.988564
1.03492
0.988049
1.04149
0.995273
1.04178
1.00255
1.03558
1.00708
1.02891
0.995122
1.0308
0.976005
1.03223
0.968063
1.02899
0.982645
1.03228
0.98653
1.04216
0.992788
1.0375
0.992834
1.03843
0.987794
1.0323
0.98466
1.0911
0.826913
1.9184
1.03425
1.04054
0.993789
1.07955
1.03938
1.07203
1.05115
1.08567
1.04957
1.07602
1.05399
1.06588
1.05454
1.06354
1.04774
1.06089
1.05452
1.05608
1.04971
1.05223
1.0457
1.05123
1.03266
1.04427
1.02501
1.04169
1.01026
1.03886
1.00061
1.03987
0.986446
1.04572
0.986274
1.04336
0.988263
1.03789
0.988893
1.03525
0.990606
1.0382
0.990851
1.04428
1.00173
1.03505
1.00566
1.02862
0.993978
1.03217
0.974042
1.03376
0.96691
1.02945
0.982171
1.03543
0.985871
1.04354
0.994729
1.03585
0.996915
1.03751
0.985812
1.02877
0.98005
1.08794
0.831993
1.91707
1.06927
1.00657
1.07181
1.06457
1.07384
1.08311
1.09057
1.04081
1.09226
1.06523
1.07208
1.05095
1.06109
1.04883
1.06469
1.04737
1.05814
1.04804
1.05525
1.04242
1.05082
1.03409
1.04718
1.02583
1.04439
1.0224
1.04269
1.01102
1.03738
0.999573
1.03844
0.990061
1.0469
0.987357
1.04662
0.987678
1.03687
0.986101
1.03937
0.989371
1.04219
0.993014
1.04442
1.0003
1.03573
1.00458
1.02841
0.99247
1.03437
0.972824
1.03608
0.970039
1.03489
0.98053
1.03596
0.983782
1.04398
0.995381
1.03397
0.997668
1.03523
0.991375
1.02954
0.980983
1.08458
0.83494
1.91565
1.03117
1.04804
1.015
1.07583
1.03253
1.07141
1.04927
1.08157
1.0512
1.07676
1.05102
1.06209
1.05983
1.05848
1.05052
1.06049
1.04942
1.05616
1.05205
1.05294
1.04855
1.04927
1.04174
1.04957
1.03493
1.04231
1.02276
1.04062
1.01149
1.03548
0.997577
1.04173
0.990638
1.04395
0.989656
1.04587
0.986524
1.03961
0.989298
1.0379
0.989891
1.03835
0.991851
1.04329
0.998684
1.0373
1.0033
1.02787
0.990958
1.0334
0.97311
1.03768
0.969433
1.03371
0.978821
1.03788
0.986252
1.04465
0.998178
1.03132
0.998666
1.03478
0.983808
1.02736
0.982355
1.08091
0.839924
1.91384
1.06348
0.999846
1.06479
1.0509
1.07104
1.08049
1.08567
1.04494
1.08459
1.07463
1.06976
1.05679
1.06127
1.04706
1.0553
1.04408
1.05892
1.04805
1.05421
1.04598
1.05081
1.04027
1.04798
1.03789
1.04561
1.02563
1.04155
1.02279
1.04041
1.01201
1.03618
0.996586
1.04061
0.994152
1.04516
0.990139
1.04744
0.98598
1.03828
0.987515
1.04058
0.9892
1.04261
0.992194
1.04439
0.99729
1.0388
1.00262
1.02683
0.989725
1.03378
0.973291
1.04083
0.972012
1.03599
0.977786
1.03809
0.9836
1.04391
1.00028
1.02883
0.995767
1.03364
0.986354
1.0273
0.983632
1.07703
0.842196
1.91217
1.028
1.05858
1.02447
1.08132
1.03764
1.07024
1.05154
1.08173
1.05282
1.08087
1.05247
1.06211
1.05235
1.05455
1.04947
1.06013
1.04991
1.0563
1.04934
1.0538
1.04818
1.04963
1.04703
1.04663
1.03852
1.04648
1.03564
1.04043
1.02518
1.03925
1.01149
1.03761
0.994246
1.04442
0.995329
1.04315
0.99182
1.04547
0.98895
1.04037
0.990937
1.04044
0.99034
1.03869
0.991332
1.04703
0.996568
1.03852
1.00208
1.02622
0.987767
1.03428
0.972235
1.04229
0.972507
1.0348
0.979817
1.03886
0.985621
1.04343
0.999345
1.02732
0.99515
1.03468
0.982315
1.02849
0.982105
1.07488
0.846827
1.9108
1.05854
0.997495
1.05438
1.04427
1.06845
1.07558
1.08615
1.04906
1.07982
1.07893
1.06998
1.05652
1.05561
1.04802
1.0619
1.04751
1.05333
1.04599
1.05469
1.04699
1.05197
1.04606
1.04767
1.03814
1.04529
1.03754
1.04415
1.02669
1.03929
1.02123
1.03825
1.01354
1.03866
0.996374
1.04299
0.995779
1.04454
0.992757
1.04508
0.987795
1.04046
0.992848
1.04276
0.990534
1.04353
0.990564
1.04786
0.995314
1.03755
1.00156
1.02633
0.985469
1.03573
0.973218
1.04381
0.974999
1.0378
0.978379
1.03944
0.986181
1.04454
1.0005
1.02554
0.992152
1.03279
0.983178
1.02859
0.986623
1.07647
0.833534
1.90965
1.02026
1.0653
1.01882
1.07928
1.03723
1.07137
1.05202
1.07858
1.05599
1.08501
1.05578
1.06526
1.05541
1.06021
1.04473
1.05292
1.04271
1.05445
1.04957
1.05237
1.04864
1.0499
1.04546
1.04767
1.04093
1.04589
1.03703
1.04419
1.03787
1.03983
1.02443
1.03775
1.01057
1.04215
0.996185
1.04624
0.995882
1.04327
0.997474
1.04347
0.987914
1.0407
0.988245
1.04284
0.991483
1.03953
0.990704
1.04846
0.997007
1.03731
1.00038
1.02726
0.983155
1.0378
0.971243
1.04263
0.974606
1.03764
0.978515
1.0409
0.987086
1.04263
0.997595
1.02428
0.993857
1.03472
0.979729
1.02876
0.981889
1.08856
0.837557
1.90804
1.07009
1.00297
1.05441
1.0517
1.06642
1.07077
1.08276
1.04903
1.0721
1.077
1.06994
1.05569
1.06189
1.04751
1.05988
1.043
1.06312
1.0451
1.05232
1.04338
1.05087
1.04523
1.04966
1.04332
1.04639
1.03927
1.04461
1.03604
1.04285
1.02773
1.03969
1.02182
1.03687
1.01116
1.04226
0.999021
1.04359
0.998118
1.04535
0.993964
1.04446
0.992891
1.04068
0.992536
1.04598
0.990925
1.04438
0.993377
1.0489
0.99506
1.03606
0.999423
1.02883
0.980478
1.0428
0.973082
1.04274
0.977132
1.03893
0.977637
1.04173
0.984959
1.04214
0.999146
1.02165
0.992053
1.0331
0.979359
1.03056
0.978645
1.08531
0.842132
1.90631
1.00874
1.06399
1.00857
1.0732
1.02917
1.07318
1.05349
1.078
1.06378
1.0851
1.05982
1.06756
1.05413
1.06098
1.04853
1.05812
1.04049
1.05386
1.04619
1.05512
1.04735
1.04875
1.0469
1.04801
1.04241
1.04795
1.03785
1.04519
1.03565
1.04241
1.03209
1.04057
1.02198
1.03747
1.00983
1.04402
0.999487
1.04714
0.998075
1.04328
0.998285
1.04253
0.986222
1.04251
0.988757
1.04519
0.992269
1.03993
0.994951
1.04714
0.994936
1.03538
0.998288
1.0301
0.978154
1.04448
0.97505
1.04143
0.975701
1.03747
0.975635
1.04298
0.987487
1.03918
0.99927
1.01933
0.99012
1.03443
0.977752
1.03191
0.97851
1.08145
0.845725
1.90497
1.0858
1.01228
1.0582
1.05538
1.06405
1.06996
1.07985
1.04784
1.06615
1.07608
1.07664
1.05378
1.07099
1.05003
1.06413
1.04697
1.06249
1.03719
1.05586
1.04063
1.04995
1.0434
1.04714
1.04317
1.04678
1.04101
1.04783
1.03663
1.04431
1.03382
1.04086
1.02897
1.03937
1.02024
1.03602
1.0093
1.04357
1.00145
1.04461
1.00118
1.04517
0.997696
1.0434
0.994603
1.04197
0.991721
1.04672
0.992561
1.04479
0.996802
1.04849
0.993575
1.03505
0.997036
1.03186
0.977426
1.0461
0.980793
1.04109
0.981989
1.04051
0.978317
1.04305
0.984347
1.03766
1.00029
1.01782
0.986964
1.03228
0.975811
1.03095
0.979701
1.07866
0.849915
1.90337
1.01979
1.05973
1.01714
1.06934
1.02674
1.07593
1.05509
1.0788
1.06533
1.08717
1.06063
1.06988
1.05872
1.06901
1.05122
1.06569
1.04454
1.05911
1.04299
1.05393
1.04425
1.05076
1.04716
1.04566
1.04412
1.04619
1.04017
1.04701
1.03618
1.04454
1.0343
1.04151
1.02954
1.04107
1.02124
1.03791
1.0079
1.04527
0.999541
1.04724
1.00106
1.04406
1.00012
1.04169
0.992135
1.04057
0.993861
1.04606
0.991915
1.03969
0.993799
1.04765
0.994242
1.03542
0.995744
1.03375
0.979014
1.04378
0.980912
1.04044
0.980354
1.0398
0.975351
1.04224
0.989401
1.03585
1.00137
1.01679
0.985221
1.03441
0.974134
1.03684
0.980046
1.07986
0.837414
1.90208
1.08493
1.01457
1.05111
1.04968
1.05807
1.07425
1.07513
1.04794
1.06376
1.07207
1.07924
1.05776
1.06718
1.05257
1.06946
1.04928
1.06503
1.04348
1.06035
1.04197
1.05633
1.03963
1.04914
1.04285
1.04488
1.04168
1.04546
1.03869
1.04642
1.03548
1.04366
1.03204
1.04194
1.02918
1.03813
1.02126
1.03803
1.00769
1.04595
1.00173
1.04442
1.00596
1.04462
0.997425
1.04227
0.994903
1.03958
0.996023
1.04533
0.993939
1.0432
0.995654
1.04975
0.994717
1.03641
0.994418
1.03512
0.983637
1.04335
0.982754
1.03965
0.982843
1.04262
0.98067
1.04387
0.990766
1.03437
0.999821
1.0157
0.984479
1.035
0.972548
1.04071
0.976917
1.0912
0.841005
1.90056
1.02783
1.0581
1.01875
1.067
1.0294
1.08081
1.05099
1.08005
1.06604
1.0897
1.06399
1.07222
1.06113
1.0741
1.04834
1.0679
1.05637
1.06393
1.04667
1.05777
1.04409
1.05025
1.0449
1.04784
1.04378
1.04318
1.04189
1.04543
1.03801
1.04624
1.03554
1.04386
1.03266
1.04163
1.02959
1.03971
1.02171
1.03818
1.00611
1.04776
1.00241
1.04536
1.00513
1.04412
1.00165
1.04085
0.996999
1.03969
1.00006
1.04397
0.991278
1.04048
0.995019
1.04839
0.993978
1.03739
0.993092
1.03476
0.986497
1.043
0.984709
1.04068
0.980621
1.03995
0.977995
1.04457
0.991578
1.03363
0.997371
1.01376
0.983135
1.03543
0.97118
1.04102
0.974063
1.08779
0.846684
1.89931
1.08425
1.02043
1.04331
1.0433
1.05486
1.07478
1.07106
1.05296
1.06241
1.06892
1.08199
1.06202
1.07106
1.05462
1.07276
1.04884
1.06722
1.04771
1.06236
1.0444
1.05673
1.04351
1.05499
1.04248
1.0472
1.04137
1.04304
1.04083
1.045
1.0369
1.04552
1.03413
1.04276
1.03028
1.04042
1.02838
1.03716
1.02125
1.04027
1.00527
1.0466
1.00693
1.04336
1.00873
1.0435
0.999227
1.04064
0.998596
1.03965
1.00179
1.04352
0.993629
1.04336
0.995311
1.05027
0.996811
1.03754
0.991786
1.03932
0.987428
1.04209
0.987267
1.04058
0.983259
1.03736
0.976886
1.04726
0.988484
1.03268
0.999007
1.01243
0.980637
1.04052
0.969506
1.04483
0.974495
1.08431
0.849594
1.8976
1.04126
1.0566
1.01918
1.06649
1.03637
1.08448
1.04963
1.08226
1.06213
1.08809
1.06252
1.0792
1.06244
1.07484
1.04946
1.0746
1.05305
1.06611
1.05683
1.0615
1.04822
1.05549
1.04563
1.05044
1.0417
1.04526
1.04138
1.04287
1.03941
1.04496
1.03611
1.04526
1.03396
1.04265
1.03143
1.04013
1.02726
1.03938
1.02095
1.0408
1.00618
1.0468
1.00733
1.04298
1.00744
1.04173
1.00416
1.03992
1.00458
1.03735
1.00195
1.0436
0.992869
1.04256
0.997133
1.04771
0.996994
1.03758
0.990448
1.04185
0.988854
1.04165
0.989387
1.03873
0.982
1.03842
0.977315
1.04584
0.989413
1.03106
0.994466
1.01216
0.977421
1.04148
0.967957
1.04751
0.977726
1.08102
0.854929
1.89571
1.07915
1.0252
1.03166
1.03267
1.05382
1.07514
1.06617
1.05587
1.0633
1.06656
1.08713
1.05763
1.08113
1.06129
1.07746
1.05286
1.07138
1.05364
1.06338
1.0496
1.05878
1.04474
1.05688
1.04447
1.05343
1.04287
1.04523
1.04027
1.04383
1.03837
1.0454
1.03512
1.0442
1.03312
1.04119
1.03012
1.0414
1.02653
1.03876
1.01997
1.04144
1.00773
1.04546
1.00917
1.04149
1.00977
1.04109
1.0023
1.03943
1.00532
1.03808
1.00159
1.04344
0.992575
1.04517
0.998176
1.0487
0.995175
1.03715
0.988729
1.04507
0.990515
1.0407
0.992319
1.03853
0.983704
1.03996
0.975596
1.04777
0.989698
1.02959
0.994795
1.01143
0.973935
1.0468
0.966201
1.04588
0.980223
1.07806
0.857402
1.89401
1.04469
1.05488
1.01862
1.07294
1.04274
1.08322
1.04552
1.08456
1.05644
1.08798
1.06224
1.08051
1.06576
1.07363
1.05403
1.07532
1.05899
1.07172
1.05451
1.06298
1.05328
1.05943
1.04794
1.05548
1.04408
1.05149
1.04223
1.04557
1.03889
1.04539
1.03779
1.04515
1.03481
1.04386
1.03376
1.04103
1.03065
1.04145
1.02592
1.04048
1.02108
1.04141
1.0096
1.04469
1.01168
1.04126
1.01083
1.04042
1.0075
1.0376
1.00337
1.03786
1.0012
1.0425
0.995105
1.04518
0.99974
1.04635
0.996702
1.03778
0.987639
1.0476
0.991089
1.03996
0.991911
1.03624
0.983715
1.03891
0.976923
1.04529
0.990016
1.02795
0.994124
1.01285
0.971342
1.05137
0.964951
1.05008
0.979448
1.07537
0.862745
1.89175
1.07589
1.02732
1.03163
1.03132
1.05702
1.07693
1.06309
1.06012
1.06643
1.06441
1.08696
1.0645
1.08851
1.04959
1.08036
1.06075
1.0687
1.05458
1.07023
1.05284
1.06385
1.0511
1.05859
1.0463
1.05362
1.04118
1.05042
1.04133
1.04784
1.03728
1.04691
1.03636
1.04635
1.03473
1.04306
1.03309
1.03978
1.02845
1.04241
1.02466
1.04023
1.01952
1.04162
1.01006
1.04348
1.01336
1.03962
1.01293
1.039
1.00503
1.0376
1.00502
1.03783
1.00229
1.04174
0.992925
1.04689
1.00124
1.04663
1.00173
1.03818
0.988107
1.04776
0.994803
1.03908
0.990905
1.03368
0.980047
1.04324
0.978267
1.04777
0.986666
1.02669
0.992259
1.01424
0.970084
1.05407
0.964
1.04979
0.983947
1.07262
0.864633
1.8895
1.04881
1.05377
1.00349
1.07598
1.04106
1.08291
1.04217
1.08667
1.05082
1.08659
1.06413
1.08101
1.06518
1.0802
1.06846
1.07382
1.06035
1.07551
1.06149
1.06933
1.05314
1.06486
1.05012
1.05831
1.04804
1.057
1.04374
1.05116
1.04061
1.04832
1.03597
1.04775
1.03621
1.04624
1.03463
1.04231
1.03348
1.03926
1.02895
1.04243
1.0244
1.04096
1.02057
1.04196
1.01311
1.0424
1.01282
1.03953
1.01259
1.03879
1.01158
1.03635
1.00455
1.03729
1.003
1.04128
0.994692
1.0468
1.00124
1.0455
1.00162
1.03929
0.988856
1.04847
0.997761
1.03844
0.993467
1.03459
0.982358
1.04258
0.9777
1.04863
0.987219
1.02657
0.990554
1.01821
0.96944
1.05703
0.964853
1.04866
0.984945
1.0709
0.870208