/*--------------------------------*- C++ -*----------------------------------*\
| =========                 |                                                 |
| \\      /  F ield         | OpenFOAM: The Open Source CFD Toolbox           |
|  \\    /   O peration     | Version:  2206                                  |
|   \\  /    A nd           | Website:  www.openfoam.com                      |
|    \\/     M anipulation  |                                                 |
\*---------------------------------------------------------------------------*/
FoamFile
{
    version     2.0;
    format      ascii;
    arch        "LSB;label=32;scalar=64";
    class       volScalarField;
    location    "190";
    object      pMean;
}
// * * * * * * * * * * * * * * * * * * * * * * * * * * * * * * * * * * * * * //

dimensions      [1 -1 -2 0 0 0 0];

internalField   nonuniform List<scalar> 
93840
(
2.21618
0.609601
2.16016
1.43269
0.640726
1.98039
0.657655
1.21387
0.704691
1.7548
1.16244
0.943866
1.18556
0.796625
1.61728
0.979368
1.11924
0.941055
1.25288
0.845497
1.52101
1.10065
0.948689
1.13619
0.834063
1.19664
0.875183
1.49633
0.978677
1.1154
0.939929
1.13093
0.882317
1.17127
0.906484
1.47198
1.10033
0.952374
1.12827
0.989274
1.12206
0.916388
1.1174
0.912002
1.47998
0.977988
1.10505
0.949708
1.09377
0.96096
1.09373
0.968625
1.09495
0.90733
1.4558
1.09971
0.969131
1.11923
0.991745
1.10001
0.981766
1.0756
0.993495
1.0845
0.916085
1.47752
0.978934
1.10072
0.959915
1.08527
0.970188
1.07641
0.976386
1.06568
0.995105
1.07458
0.914245
1.4626
1.09858
0.971065
1.11183
0.998646
1.08451
0.992568
1.07223
0.999246
1.05597
1.00221
1.07043
0.917554
1.47371
0.980483
1.09964
0.966839
1.07846
0.986661
1.06677
0.98393
1.06298
0.999537
1.05703
0.995896
1.07299
0.915938
1.45802
1.09768
0.973584
1.1057
1.0011
1.07587
0.99986
1.06853
0.999824
1.05914
1.00604
1.05084
1.00132
1.06774
0.919235
1.47126
0.981787
1.09832
0.973245
1.07392
0.992644
1.06135
0.991356
1.05743
0.998944
1.05636
0.998945
1.05412
0.997682
1.06942
0.917916
1.45357
1.09651
0.976372
1.09999
1.00372
1.07105
1.00459
1.06562
1.00316
1.0615
1.00486
1.05486
1.00621
1.0494
1.00135
1.06691
0.921646
1.46699
0.983544
1.09673
0.979228
1.07024
0.996683
1.0575
0.997226
1.05513
0.998923
1.05236
1.00076
1.05206
1.00068
1.05216
0.998824
1.06688
0.920329
1.44887
1.09481
0.979617
1.09489
1.00613
1.06733
1.00764
1.06317
1.00649
1.06044
1.0063
1.05776
1.00738
1.05056
1.00735
1.04864
1.00283
1.06532
0.923998
1.46292
0.984722
1.09485
0.984734
1.06693
1.00068
1.054
1.00164
1.05327
1.00055
1.05155
1.0015
1.05006
1.00279
1.0501
1.00107
1.04987
1.00054
1.06472
0.922767
1.44503
1.09384
0.983111
1.09047
1.0086
1.06382
1.01007
1.06056
1.00932
1.06018
1.00714
1.05805
1.00901
1.05511
1.01051
1.0471
1.00823
1.04697
1.00392
1.06368
0.926528
1.45843
0.985519
1.09262
0.989467
1.0639
1.00434
1.05099
1.00529
1.05173
1.00389
1.0511
1.00284
1.04884
1.00356
1.04674
1.00406
1.04936
1.00331
1.04794
1.00225
1.06253
0.925434
1.44211
1.09346
0.986502
1.08682
1.01083
1.061
1.01194
1.05793
1.01181
1.05899
1.00832
1.05825
1.00993
1.05553
1.01053
1.05266
1.01051
1.04478
1.00887
1.0467
1.00546
1.06203
0.929489
1.45307
0.987126
1.09047
0.993969
1.0612
1.00736
1.04852
1.00808
1.05007
1.00742
1.05043
1.00501
1.0459
1.00704
1.04605
1.00604
1.04553
1.00743
1.04754
1.00484
1.04613
1.00372
1.06052
0.928245
1.43968
1.0927
0.98978
1.08334
1.01322
1.05848
1.01358
1.05534
1.0141
1.05614
1.01053
1.05381
1.01359
1.05483
1.01138
1.05275
1.01111
1.0492
1.01178
1.04371
1.01008
1.04519
1.00699
1.06072
0.930292
1.43541
0.988947
1.08825
0.998291
1.05846
1.01023
1.04652
1.01027
1.04825
1.01001
1.04828
1.00974
1.04566
1.00961
1.04518
1.00877
1.045
1.00816
1.04443
1.00997
1.04531
1.00666
1.04509
1.00436
1.05862
0.926506
1.42702
1.09165
0.993242
1.08029
1.01575
1.05618
1.01514
1.05282
1.01625
1.05406
1.0134
1.05322
1.01556
1.05266
1.01377
1.05078
1.01444
1.05071
1.01397
1.0466
1.01217
1.04334
1.01067
1.04462
1.00753
1.0587
0.939606
1.43373
0.991026
1.08575
1.00218
1.05587
1.01294
1.04472
1.01208
1.04647
1.01248
1.0477
1.01135
1.04637
1.01177
1.04518
1.01026
1.04346
1.01021
1.04394
1.00982
1.04359
1.01156
1.04361
1.00745
1.04464
1.00488
1.05438
0.937501
1.4304
1.09029
0.996429
1.07742
1.0181
1.05442
1.01672
1.05064
1.01784
1.05164
1.01543
1.05171
1.01651
1.05211
1.01545
1.04991
1.0171
1.05009
1.01501
1.0495
1.01484
1.04538
1.01293
1.04349
1.00968
1.04431
1.00771
1.056
0.938353
1.43411
0.993077
1.08333
1.00592
1.05379
1.01526
1.04327
1.01366
1.04459
1.0143
1.04612
1.01353
1.04562
1.01313
1.0451
1.01237
1.04372
1.01118
1.04283
1.01123
1.04363
1.01078
1.04281
1.01192
1.04416
1.00742
1.04466
1.00574
1.05569
0.937372
1.42833
1.08894
0.999589
1.07485
1.02052
1.05292
1.01815
1.04865
1.01896
1.04936
1.01747
1.05103
1.01754
1.04983
1.01624
1.05081
1.0166
1.0496
1.01673
1.04897
1.01402
1.04808
1.01489
1.04448
1.01236
1.04332
1.00931
1.04379
1.00784
1.05662
0.937383
1.43092
0.995256
1.08082
1.00924
1.05226
1.01728
1.04182
1.01502
1.04285
1.01561
1.04495
1.0149
1.04542
1.01452
1.04534
1.01422
1.04396
1.01313
1.04331
1.01225
1.04245
1.01225
1.04294
1.01197
1.04296
1.01133
1.0434
1.00816
1.04399
1.00579
1.05697
0.937969
1.42482
1.08723
1.00278
1.0724
1.02235
1.05183
1.01951
1.04705
1.01979
1.0477
1.01895
1.04926
1.0173
1.0496
1.01786
1.04857
1.0164
1.04902
1.01748
1.04823
1.01706
1.04835
1.0156
1.04744
1.01458
1.04431
1.01322
1.04274
1.00915
1.04305
1.00687
1.05703
0.940071
1.42659
0.997486
1.07808
1.01227
1.05103
1.01904
1.04063
1.01626
1.04133
1.01659
1.04356
1.01556
1.04459
1.01578
1.04471
1.01557
1.04438
1.01616
1.0432
1.01371
1.04308
1.01308
1.04211
1.0129
1.04236
1.0122
1.04273
1.01171
1.04356
1.00878
1.04416
1.00506
1.05581
0.940684
1.42095
1.08537
1.00602
1.07032
1.02421
1.05096
1.02063
1.04575
1.02065
1.04614
1.01934
1.04761
1.01931
1.0481
1.01873
1.04715
1.01834
1.0476
1.01764
1.04701
1.01869
1.04696
1.01747
1.0469
1.01586
1.04667
1.01521
1.04391
1.01315
1.0424
1.00946
1.0431
1.00698
1.05737
0.933868
1.42266
0.999747
1.07532
1.0149
1.04997
1.02064
1.03949
1.01728
1.03998
1.01736
1.04251
1.01666
1.04369
1.01672
1.04359
1.01813
1.04417
1.01752
1.04281
1.01706
1.04262
1.01494
1.04292
1.0138
1.04237
1.01377
1.04153
1.01279
1.04213
1.01203
1.04299
1.00899
1.04465
1.00452
1.06538
0.934894
1.4169
1.08352
1.00901
1.06856
1.02583
1.05025
1.02159
1.04485
1.02148
1.04484
1.01985
1.04608
1.01996
1.04653
1.02011
1.04734
1.01901
1.04701
1.01892
1.04691
1.01883
1.04576
1.01816
1.0458
1.01714
1.04611
1.01645
1.04583
1.01519
1.04367
1.0136
1.04218
1.0098
1.0434
1.00236
1.06378
0.938828
1.41846
1.0018
1.07297
1.01745
1.04905
1.02211
1.03859
1.01805
1.03899
1.01806
1.04125
1.01792
1.04178
1.01803
1.04341
1.01797
1.04227
1.01939
1.0427
1.01926
1.04212
1.01776
1.04266
1.01604
1.04302
1.01504
1.0423
1.01499
1.04164
1.01402
1.04187
1.01259
1.04269
1.00903
1.04443
1.00328
1.06082
0.9395
1.41297
1.08155
1.01142
1.06701
1.02728
1.04977
1.0224
1.04418
1.02203
1.04383
1.02055
1.04436
1.0209
1.04522
1.02037
1.04508
1.02103
1.04635
1.02
1.04605
1.01859
1.04676
1.0192
1.04596
1.01827
1.04549
1.0174
1.04537
1.01655
1.04499
1.01553
1.04294
1.01361
1.04221
1.00948
1.04374
1.0046
1.05989
0.942942
1.41457
1.004
1.07081
1.01958
1.04823
1.02355
1.03787
1.0186
1.03808
1.01866
1.03998
1.01935
1.04086
1.01935
1.04198
1.01919
1.04253
1.01946
1.04257
1.02064
1.04248
1.0194
1.04168
1.01803
1.04219
1.01685
1.043
1.01566
1.04231
1.01545
1.04159
1.01441
1.04232
1.01247
1.04304
1.00905
1.04466
1.00501
1.05999
0.933942
1.40923
1.07946
1.01367
1.066
1.02865
1.04937
1.0231
1.04366
1.0225
1.04312
1.02163
1.04364
1.02085
1.04408
1.02063
1.04405
1.02142
1.04466
1.0214
1.04521
1.02036
1.04543
1.01969
1.04577
1.01969
1.04512
1.01876
1.04513
1.01766
1.0453
1.01679
1.04509
1.01539
1.04294
1.01329
1.04263
1.0093
1.04438
1.00503
1.06819
0.937562
1.41072
1.00623
1.06863
1.02141
1.04754
1.02483
1.03728
1.01912
1.03734
1.0193
1.0386
1.01929
1.03986
1.02091
1.04049
1.02018
1.04128
1.02038
1.04232
1.02026
1.04244
1.02131
1.04203
1.02005
1.04178
1.01833
1.04207
1.01736
1.04275
1.01609
1.04229
1.01565
1.04182
1.01447
1.04253
1.01244
1.0432
1.00877
1.04464
1.00081
1.06528
0.939198
1.40512
1.07741
1.01576
1.06521
1.02976
1.04909
1.02371
1.0432
1.02295
1.0422
1.02283
1.0429
1.02157
1.04307
1.0195
1.04313
1.02159
1.04395
1.02176
1.04427
1.02162
1.04467
1.02085
1.04483
1.02012
1.045
1.02004
1.04471
1.01879
1.04496
1.01796
1.04484
1.01683
1.0446
1.01556
1.04293
1.01307
1.04302
1.00918
1.04485
1.00325
1.06353
0.942844
1.40729
1.00829
1.06672
1.02331
1.04689
1.026
1.03683
1.01967
1.03659
1.02051
1.03699
1.01953
1.03869
1.02048
1.03969
1.0213
1.04011
1.02145
1.04133
1.02127
1.042
1.02127
1.04194
1.02199
1.04189
1.02016
1.04171
1.0189
1.04203
1.01778
1.04247
1.01638
1.04233
1.01594
1.04163
1.01438
1.04258
1.01234
1.0433
1.00866
1.04465
1.00371
1.0604
0.943798
1.40205
1.07553
1.01776
1.06443
1.03071
1.04896
1.02437
1.0428
1.02339
1.04197
1.02283
1.04184
1.02259
1.0423
1.02118
1.04312
1.02175
1.04207
1.02203
1.04251
1.02237
1.04318
1.02161
1.04397
1.02082
1.04409
1.02033
1.04423
1.01956
1.04466
1.01878
1.04473
1.01802
1.04457
1.01716
1.04424
1.01571
1.04319
1.01284
1.04328
1.00883
1.04541
1.00522
1.05935
0.946224
1.40435
1.01019
1.06495
1.02485
1.04633
1.02698
1.03638
1.02027
1.03615
1.02094
1.03598
1.02035
1.03739
1.02022
1.0388
1.02143
1.03939
1.0217
1.04044
1.02247
1.04079
1.02197
1.04161
1.02192
1.04177
1.02242
1.04163
1.0203
1.04193
1.0193
1.04209
1.01826
1.0423
1.01709
1.04212
1.01613
1.04169
1.0145
1.0427
1.01229
1.04342
1.00833
1.04508
1.005
1.05973
0.938601
1.39884
1.07364
1.01979
1.06396
1.03157
1.04895
1.0251
1.0425
1.02376
1.04179
1.0226
1.04143
1.02304
1.04143
1.02235
1.04175
1.02149
1.04127
1.02259
1.04156
1.02276
1.04261
1.02285
1.04318
1.022
1.04346
1.02119
1.04307
1.02127
1.0441
1.01903
1.04464
1.01859
1.04436
1.01806
1.04428
1.0173
1.0437
1.0156
1.04327
1.01271
1.04383
1.00876
1.04591
1.0056
1.06655
0.940932
1.40075
1.01238
1.06316
1.02629
1.04579
1.0278
1.03598
1.02093
1.03579
1.02155
1.03523
1.02209
1.03622
1.02129
1.03734
1.02139
1.03842
1.0222
1.0399
1.0222
1.04042
1.02264
1.04056
1.02245
1.04143
1.02235
1.04127
1.02265
1.04059
1.02073
1.04166
1.01925
1.04224
1.01864
1.0424
1.01738
1.04224
1.01646
1.04129
1.0148
1.04271
1.01212
1.04374
1.00782
1.04517
1.00109
1.06419
0.942556
1.39503
1.07178
1.02191
1.06349
1.03234
1.04903
1.02582
1.04226
1.02406
1.04121
1.02286
1.04057
1.02184
1.0402
1.02219
1.04022
1.02256
1.04165
1.022
1.04205
1.02295
1.04119
1.02282
1.04205
1.0232
1.04239
1.02257
1.04307
1.02185
1.04248
1.02171
1.04389
1.01974
1.04431
1.01882
1.04429
1.01826
1.0442
1.01757
1.04388
1.01554
1.04331
1.0126
1.04378
1.00871
1.0459
1.00398
1.06268
0.944316
1.39708
1.0146
1.06167
1.02772
1.04527
1.02853
1.03572
1.02163
1.03549
1.02222
1.03502
1.02254
1.03552
1.02259
1.03666
1.02232
1.03745
1.02225
1.03804
1.02253
1.03946
1.02278
1.04063
1.02289
1.0403
1.02252
1.04097
1.02256
1.04119
1.02292
1.04034
1.02105
1.04114
1.01997
1.0421
1.01879
1.04238
1.01746
1.04223
1.01663
1.04141
1.0149
1.04266
1.01217
1.04337
1.00873
1.0452
1.00324
1.06073
0.945642
1.39153
1.06997
1.02396
1.06301
1.03294
1.04915
1.02647
1.04212
1.02431
1.0408
1.02323
1.04058
1.02202
1.04013
1.02235
1.03968
1.022
1.0402
1.02265
1.04048
1.02294
1.0414
1.02358
1.04095
1.0237
1.04188
1.02336
1.04253
1.02303
1.0427
1.02225
1.04231
1.02196
1.04293
1.02033
1.04402
1.01911
1.044
1.01845
1.04397
1.01739
1.0438
1.01579
1.04317
1.01279
1.04332
1.00904
1.04596
1.00532
1.06199
0.939706
1.39378
1.01678
1.06005
1.02876
1.0449
1.02922
1.03554
1.0223
1.03523
1.02288
1.03452
1.02278
1.03526
1.02315
1.03531
1.02293
1.03692
1.0224
1.03776
1.02289
1.0383
1.02294
1.03902
1.02328
1.04008
1.02287
1.04036
1.02321
1.04068
1.02285
1.04065
1.02301
1.04016
1.02149
1.04092
1.02006
1.04165
1.01916
1.04202
1.01771
1.04205
1.01678
1.04112
1.01521
1.04248
1.01269
1.04311
1.00892
1.04522
1.00389
1.06671
0.941708
1.38823
1.06836
1.02598
1.06283
1.03343
1.04927
1.02702
1.04204
1.02455
1.04048
1.02361
1.0398
1.02285
1.03908
1.0225
1.03886
1.02255
1.03959
1.02314
1.03956
1.02283
1.04064
1.02382
1.04072
1.02376
1.04104
1.02388
1.04147
1.0235
1.04219
1.02324
1.0424
1.02252
1.04226
1.02216
1.04277
1.02077
1.04361
1.0193
1.0439
1.01848
1.04384
1.01764
1.04318
1.01596
1.04268
1.01351
1.04304
1.00899
1.04588
1.00224
1.06501
0.944161
1.39052
1.01852
1.05907
1.02977
1.04454
1.02982
1.03545
1.02295
1.03503
1.02359
1.03434
1.02343
1.03487
1.02343
1.03487
1.02413
1.03611
1.02352
1.0373
1.02293
1.03779
1.02361
1.038
1.02352
1.03873
1.0239
1.03978
1.0236
1.03989
1.02363
1.04039
1.02319
1.04034
1.02304
1.04013
1.02172
1.04092
1.02034
1.04152
1.01933
1.04201
1.01774
1.0419
1.01721
1.0414
1.01534
1.04155
1.01359
1.0432
1.00903
1.04529
1.00267
1.06278
0.945527
1.38476
1.06688
1.02727
1.06239
1.03343
1.04935
1.02749
1.04199
1.02482
1.04024
1.02395
1.03922
1.02345
1.03769
1.02328
1.03866
1.02318
1.03882
1.02276
1.03866
1.02346
1.03923
1.02368
1.03982
1.02439
1.04036
1.02409
1.04084
1.02422
1.0416
1.02368
1.04182
1.0235
1.04207
1.02265
1.04216
1.02211
1.04226
1.02097
1.04349
1.01941
1.04367
1.01876
1.04351
1.01769
1.04305
1.01652
1.04178
1.0136
1.04305
1.00898
1.04584
1.00509
1.06163
0.946616
1.38702
1.02024
1.05855
1.03066
1.0451
1.03034
1.03546
1.02363
1.0348
1.02431
1.03422
1.02413
1.0337
1.02423
1.0351
1.02458
1.03497
1.0242
1.03625
1.02415
1.03665
1.02361
1.03725
1.02434
1.0381
1.02398
1.03875
1.02385
1.03951
1.02404
1.03964
1.02395
1.03997
1.02338
1.04023
1.02289
1.04
1.02199
1.0407
1.02037
1.04132
1.01949
1.04185
1.01797
1.04178
1.01735
1.04126
1.01591
1.04169
1.01364
1.04306
1.00904
1.04537
1.00463
1.0602
0.947927
1.3812
1.06545
1.02845
1.06193
1.03381
1.0493
1.02797
1.04192
1.02507
1.04021
1.02422
1.0383
1.02372
1.03838
1.02374
1.03757
1.02362
1.03732
1.02373
1.03805
1.0235
1.0386
1.02435
1.03884
1.02395
1.03887
1.02475
1.04005
1.02477
1.0406
1.02436
1.04131
1.02378
1.04155
1.0237
1.04175
1.02291
1.04197
1.02224
1.04236
1.02106
1.04331
1.01951
1.04345
1.01892
1.04341
1.01778
1.04273
1.01648
1.04169
1.01371
1.04287
1.00897
1.04578
1.00593
1.0589
0.949379
1.38355
1.02192
1.05794
1.03172
1.04471
1.03089
1.03547
1.02427
1.03461
1.02496
1.03406
1.02473
1.0346
1.02449
1.03409
1.02454
1.0346
1.02521
1.03526
1.02415
1.03599
1.02447
1.03607
1.02447
1.03731
1.02497
1.03829
1.02469
1.03878
1.02441
1.03951
1.02406
1.03968
1.02417
1.03995
1.02358
1.04008
1.02302
1.03969
1.02215
1.04054
1.02072
1.0411
1.01964
1.0417
1.01818
1.04164
1.01764
1.04132
1.01617
1.04148
1.0136
1.0427
1.00903
1.04525
1.00539
1.05765
0.950543
1.37801
1.06411
1.02944
1.06139
1.03434
1.04924
1.02847
1.04189
1.02541
1.04023
1.02444
1.03832
1.02444
1.03758
1.02426
1.03725
1.0242
1.03705
1.02416
1.03713
1.02447
1.03771
1.02445
1.03822
1.02421
1.03836
1.0246
1.03847
1.0249
1.03988
1.02492
1.04034
1.02479
1.04114
1.02421
1.04135
1.02386
1.04139
1.023
1.04167
1.02224
1.04228
1.02103
1.04316
1.01983
1.04334
1.01899
1.04308
1.0178
1.04257
1.01624
1.04156
1.01393
1.04292
1.00903
1.04582
1.00636
1.05803
0.946913
1.38043
1.02341
1.05746
1.03247
1.04434
1.03137
1.03546
1.02484
1.03441
1.02556
1.03395
1.02521
1.03383
1.0251
1.03382
1.02538
1.03411
1.02539
1.03472
1.0253
1.03536
1.0249
1.03607
1.02488
1.03638
1.02489
1.03751
1.02527
1.03854
1.02497
1.03878
1.02466
1.03929
1.02438
1.03942
1.02428
1.0398
1.02374
1.03991
1.02325
1.03981
1.02225
1.04054
1.0207
1.04101
1.01964
1.04151
1.01841
1.04157
1.01773
1.04125
1.0165
1.04125
1.01358
1.04254
1.00906
1.04533
1.00575
1.06174
0.947805
1.3748
1.0628
1.03038
1.06122
1.03484
1.04914
1.02898
1.04188
1.02584
1.0403
1.02481
1.03813
1.02492
1.03746
1.02467
1.03672
1.02458
1.03617
1.0245
1.03623
1.0248
1.03699
1.02479
1.03708
1.02496
1.03785
1.02502
1.03809
1.02508
1.03827
1.02508
1.03942
1.02523
1.04038
1.02487
1.04096
1.02445
1.04113
1.02393
1.04098
1.02313
1.04141
1.02226
1.04205
1.02124
1.04289
1.01994
1.04324
1.01899
1.04296
1.01785
1.04232
1.01626
1.04145
1.01409
1.04282
1.00906
1.04565
1.00428
1.06104
0.949023
1.37713
1.02494
1.05708
1.03344
1.04393
1.0318
1.03548
1.0254
1.03424
1.0262
1.03366
1.02599
1.03388
1.02575
1.03355
1.02571
1.03406
1.02572
1.03447
1.02603
1.03484
1.0256
1.03515
1.02534
1.03593
1.02504
1.0364
1.02507
1.03738
1.02538
1.03832
1.02534
1.03888
1.02491
1.03912
1.0246
1.03944
1.02436
1.03972
1.02404
1.03965
1.02324
1.03961
1.02229
1.04034
1.02073
1.041
1.01973
1.04143
1.0185
1.04138
1.0178
1.04115
1.01659
1.04111
1.01344
1.04247
1.00905
1.04513
1.00468
1.05972
0.949909
1.37165
1.06168
1.03129
1.06056
1.03533
1.049
1.02949
1.04189
1.02626
1.0403
1.02543
1.03795
1.02544
1.03642
1.02587
1.0364
1.02542
1.0356
1.02495
1.03593
1.02512
1.03597
1.02519
1.03653
1.02528
1.03672
1.02546
1.03773
1.02539
1.03805
1.0254
1.03852
1.02538
1.03907
1.02545
1.04027
1.02504
1.04075
1.02463
1.04082
1.02403
1.04072
1.02332
1.04135
1.02231
1.04188
1.02141
1.0426
1.02001
1.04311
1.01893
1.04279
1.01788
1.04205
1.01635
1.04134
1.01412
1.04274
1.00934
1.0452
1.00508
1.05852
0.951865
1.37373
1.0262
1.05676
1.03454
1.04354
1.03222
1.03552
1.0259
1.03409
1.02679
1.03321
1.02657
1.03321
1.02676
1.03282
1.02593
1.03355
1.02604
1.03425
1.02594
1.03425
1.02614
1.03464
1.02598
1.03478
1.0259
1.03593
1.0252
1.0364
1.0254
1.03724
1.02576
1.03814
1.0255
1.03889
1.02515
1.03904
1.02481
1.03935
1.02436
1.03953
1.02417
1.03945
1.02312
1.03953
1.02224
1.0403
1.02089
1.04089
1.01975
1.04127
1.01852
1.04109
1.01796
1.04095
1.0166
1.04087
1.01346
1.04233
1.00934
1.04478
1.00554
1.0584
0.947426
1.36848
1.06075
1.0324
1.05981
1.03578
1.0488
1.02996
1.04188
1.02667
1.04032
1.02612
1.03827
1.02615
1.03661
1.02578
1.03581
1.02654
1.03627
1.02557
1.036
1.02518
1.03589
1.02546
1.03584
1.02537
1.0362
1.02569
1.03643
1.02594
1.0375
1.02576
1.03785
1.02565
1.03838
1.02575
1.03905
1.02556
1.04022
1.02518
1.04043
1.025
1.04075
1.02413
1.04053
1.02365
1.04114
1.02246
1.04163
1.02144
1.04254
1.02019
1.04303
1.01919
1.04278
1.01795
1.04176
1.01644
1.04114
1.01415
1.04254
1.00961
1.04505
1.00593
1.06244
0.94866
1.37059
1.02738
1.05629
1.03581
1.04316
1.03273
1.03558
1.0264
1.03396
1.02736
1.0329
1.02693
1.03322
1.02679
1.03296
1.02717
1.033
1.0263
1.03297
1.02654
1.03416
1.02636
1.03426
1.02619
1.0345
1.0263
1.03462
1.02616
1.03582
1.02547
1.03631
1.02577
1.03717
1.02607
1.03813
1.02566
1.03878
1.02531
1.03886
1.02497
1.0392
1.0245
1.03938
1.02419
1.03926
1.02319
1.03955
1.02228
1.04025
1.02085
1.04066
1.01985
1.04111
1.0187
1.04086
1.01811
1.04071
1.01664
1.04061
1.01343
1.04203
1.00973
1.04461
1.00351
1.06101
0.949938
1.36551
1.05992
1.03339
1.05909
1.03614
1.04871
1.0304
1.04185
1.02708
1.04031
1.02669
1.03838
1.02675
1.03692
1.02647
1.03624
1.02659
1.03564
1.02665
1.03542
1.02621
1.03512
1.02583
1.03556
1.0259
1.03572
1.02598
1.0361
1.02599
1.0363
1.02604
1.03732
1.02599
1.03772
1.02595
1.03822
1.02594
1.03899
1.02574
1.03996
1.02535
1.04026
1.02513
1.04047
1.02433
1.04036
1.02366
1.04096
1.02246
1.04136
1.02182
1.04223
1.02046
1.04282
1.01925
1.04251
1.0181
1.04146
1.0166
1.04097
1.01425
1.04217
1.00989
1.04469
1.005
1.05986
0.951014
1.36753
1.02849
1.05595
1.03675
1.04289
1.03315
1.03563
1.02689
1.03386
1.0279
1.03283
1.02755
1.03295
1.02704
1.03245
1.02749
1.03322
1.02721
1.03279
1.02714
1.03282
1.02666
1.03368
1.02659
1.0343
1.02657
1.03431
1.02654
1.03482
1.02633
1.03581
1.02588
1.03632
1.02605
1.03712
1.02622
1.03785
1.02598
1.03873
1.0255
1.03889
1.02513
1.03913
1.02465
1.03919
1.02433
1.03913
1.02322
1.03946
1.02212
1.04018
1.021
1.0403
1.02001
1.04097
1.01892
1.04061
1.0183
1.04046
1.01655
1.04048
1.01358
1.04159
1.01022
1.04424
1.00498
1.05822
0.952417
1.36244
1.059
1.03429
1.05839
1.03649
1.04863
1.03073
1.04178
1.02745
1.04033
1.02717
1.03857
1.02679
1.0373
1.02675
1.0366
1.02667
1.03536
1.02658
1.03535
1.0266
1.03503
1.02663
1.03523
1.02617
1.03534
1.02608
1.03551
1.02621
1.03592
1.02621
1.03622
1.02616
1.03712
1.02616
1.0375
1.02625
1.03795
1.02604
1.0389
1.02588
1.03975
1.02561
1.0401
1.02525
1.04023
1.0244
1.04023
1.02366
1.04079
1.02261
1.04108
1.02193
1.04215
1.02053
1.04252
1.01941
1.04217
1.01815
1.04105
1.01667
1.04086
1.01429
1.04152
1.01036
1.04412
1.00625
1.05674
0.953412
1.36411
1.02976
1.05559
1.03762
1.0427
1.03357
1.03568
1.02742
1.03381
1.02833
1.03288
1.02801
1.03353
1.02751
1.03362
1.02771
1.03327
1.02736
1.03358
1.02736
1.03261
1.02764
1.03335
1.0268
1.03337
1.02666
1.03429
1.02667
1.03449
1.02672
1.03495
1.02647
1.03589
1.02616
1.0363
1.0263
1.0371
1.02643
1.03791
1.02622
1.0385
1.02578
1.03879
1.0253
1.03898
1.0248
1.03901
1.02438
1.03904
1.02326
1.03946
1.02227
1.04004
1.02118
1.04019
1.02022
1.04052
1.01922
1.04039
1.01848
1.0402
1.01648
1.04025
1.01381
1.04115
1.01072
1.04385
1.00601
1.05551
0.954888
1.35919
1.05833
1.03515
1.05782
1.03684
1.04851
1.0311
1.04166
1.02776
1.04035
1.02767
1.03898
1.027
1.03722
1.0267
1.03558
1.02687
1.03504
1.02733
1.03417
1.02745
1.03488
1.02702
1.03457
1.02708
1.03517
1.02645
1.03514
1.02618
1.03535
1.02638
1.03577
1.02628
1.03624
1.02632
1.03699
1.02648
1.03738
1.02635
1.03801
1.02623
1.03865
1.02607
1.03943
1.02572
1.03994
1.02532
1.04008
1.0245
1.04
1.02363
1.0406
1.02269
1.04095
1.02198
1.0418
1.02078
1.04223
1.01954
1.04188
1.01817
1.04073
1.01673
1.04071
1.0141
1.04095
1.01055
1.04365
1.00684
1.05608
0.95082
1.36071
1.03071
1.05523
1.03834
1.04259
1.03397
1.03566
1.02796
1.03381
1.02874
1.03299
1.02833
1.0332
1.02847
1.03422
1.02837
1.03319
1.02841
1.03328
1.02781
1.03306
1.02731
1.03275
1.02765
1.0334
1.02706
1.03344
1.02682
1.034
1.02681
1.03454
1.0268
1.03507
1.02674
1.03585
1.02641
1.0363
1.02652
1.037
1.02667
1.03778
1.02643
1.03859
1.02594
1.03886
1.02545
1.03891
1.02499
1.03887
1.02446
1.03898
1.02331
1.0394
1.02235
1.03996
1.02137
1.03992
1.02048
1.04032
1.01932
1.04025
1.01862
1.03994
1.01652
1.04015
1.01438
1.04104
1.01099
1.04364
1.00628
1.05991
0.952179
1.35595
1.05771
1.03595
1.05731
1.03712
1.04836
1.03146
1.0415
1.02803
1.04031
1.02817
1.0393
1.02746
1.03787
1.02621
1.03471
1.0272
1.03527
1.02771
1.03377
1.02829
1.03388
1.02818
1.03484
1.02742
1.03428
1.02715
1.03482
1.02659
1.0353
1.0265
1.03542
1.02649
1.03569
1.02629
1.03621
1.02651
1.03681
1.02652
1.03739
1.02649
1.03802
1.02637
1.03866
1.02615
1.03933
1.0258
1.03978
1.02537
1.03984
1.02454
1.03992
1.02366
1.0404
1.0228
1.04076
1.02208
1.04158
1.02085
1.04203
1.01961
1.04156
1.01821
1.04059
1.01671
1.04059
1.0139
1.04072
1.01064
1.04335
1.00452
1.05879
0.953663
1.35703
1.03163
1.05488
1.03904
1.04251
1.03435
1.03568
1.02849
1.03385
1.02911
1.03329
1.02865
1.03326
1.02902
1.0334
1.02958
1.03379
1.02893
1.03356
1.02865
1.03303
1.02803
1.03311
1.02768
1.03277
1.02755
1.0334
1.02723
1.03374
1.02681
1.03411
1.02689
1.03451
1.02685
1.03511
1.0269
1.03568
1.02662
1.03617
1.02679
1.03694
1.02679
1.03766
1.02658
1.0385
1.02602
1.03881
1.02557
1.03882
1.0251
1.03866
1.02455
1.03887
1.02335
1.03921
1.02244
1.03964
1.02121
1.03989
1.0206
1.04015
1.01946
1.03996
1.01867
1.03964
1.01661
1.04005
1.01436
1.04088
1.01112
1.04342
1.00511
1.05692
0.955
1.3528
1.05705
1.03667
1.05689
1.03737
1.04822
1.03175
1.04133
1.02828
1.04027
1.02859
1.03953
1.02795
1.03764
1.02747
1.03591
1.02761
1.03481
1.0281
1.03438
1.02853
1.03415
1.02849
1.03392
1.02803
1.0343
1.02766
1.03401
1.02731
1.03447
1.02679
1.03517
1.02667
1.03533
1.02673
1.03552
1.02647
1.03615
1.02663
1.03689
1.02665
1.03728
1.02668
1.03792
1.02645
1.03862
1.02636
1.03914
1.02587
1.03959
1.02542
1.03977
1.02459
1.03981
1.02367
1.04027
1.02296
1.04064
1.02249
1.04134
1.02093
1.04173
1.01966
1.04125
1.01837
1.04023
1.0167
1.04036
1.01403
1.0404
1.01083
1.043
1.00587
1.05586
0.955837
1.35205
1.03273
1.05461
1.03971
1.04245
1.03472
1.0357
1.029
1.03393
1.02945
1.03361
1.02899
1.03336
1.0297
1.03355
1.02969
1.03344
1.02969
1.03359
1.02911
1.03341
1.02863
1.03319
1.02819
1.03309
1.02795
1.03334
1.02778
1.03355
1.02743
1.03365
1.02702
1.03412
1.02703
1.03447
1.02697
1.03524
1.02704
1.03566
1.02687
1.03615
1.02697
1.03697
1.02687
1.03766
1.02668
1.03833
1.02621
1.03876
1.02563
1.03872
1.02518
1.03855
1.02461
1.03878
1.02343
1.03912
1.0225
1.03956
1.02134
1.03972
1.02049
1.04003
1.01953
1.0397
1.01878
1.0393
1.0167
1.03982
1.01447
1.0405
1.01112
1.04297
1.00649
1.05581
0.951921
1.34787
1.05646
1.03732
1.05638
1.03761
1.04809
1.03203
1.04118
1.02852
1.04024
1.02907
1.03953
1.02848
1.03793
1.02745
1.03522
1.02844
1.03519
1.02842
1.03468
1.02851
1.03395
1.02846
1.03395
1.02862
1.03395
1.02815
1.0338
1.02774
1.03388
1.02743
1.03441
1.02696
1.03497
1.02672
1.03535
1.02679
1.03548
1.02658
1.03614
1.02679
1.03672
1.02676
1.03721
1.02679
1.03789
1.02662
1.03846
1.02646
1.03903
1.02597
1.03951
1.02546
1.03958
1.02465
1.03962
1.0237
1.04014
1.02299
1.04046
1.02257
1.04113
1.02121
1.04151
1.01981
1.04094
1.01834
1.04002
1.01681
1.04014
1.01419
1.04016
1.01094
1.04277
1.0064
1.05912
0.955693
1.34869
1.03344
1.05419
1.04042
1.04243
1.03506
1.03569
1.02947
1.03406
1.02975
1.03391
1.02938
1.03345
1.02976
1.03276
1.03043
1.03371
1.03016
1.03346
1.02931
1.03344
1.02923
1.03332
1.02875
1.03309
1.02828
1.03319
1.02798
1.03343
1.02781
1.03357
1.0275
1.03365
1.02719
1.0342
1.02713
1.03444
1.02704
1.03517
1.02722
1.03558
1.02699
1.03621
1.02706
1.03699
1.02693
1.03762
1.02681
1.03824
1.02633
1.03869
1.02573
1.03858
1.02523
1.03844
1.02466
1.03871
1.02345
1.03903
1.02263
1.03938
1.02141
1.03956
1.02059
1.03987
1.01965
1.0395
1.01892
1.03901
1.01681
1.03956
1.01467
1.04036
1.0112
1.04272
1.00455
1.05715
0.956958
1.34496
1.05596
1.03813
1.05594
1.03783
1.04799
1.03225
1.04105
1.02872
1.04021
1.02956
1.0395
1.0292
1.03816
1.02818
1.03567
1.0289
1.03532
1.02826
1.03414
1.02887
1.03433
1.02894
1.03409
1.02867
1.03413
1.02858
1.03384
1.02828
1.03381
1.02788
1.03385
1.02762
1.03447
1.02711
1.03496
1.02682
1.03531
1.02695
1.03551
1.02673
1.03613
1.02694
1.03666
1.0269
1.03718
1.02698
1.03786
1.0267
1.03829
1.02654
1.03889
1.02598
1.03935
1.02549
1.03936
1.02474
1.0395
1.02375
1.04
1.02311
1.04021
1.0227
1.04089
1.02125
1.04122
1.01986
1.0406
1.01845
1.03974
1.01684
1.03979
1.01427
1.04018
1.01091
1.0426
1.00557
1.0565
0.957776
1.34559
1.03419
1.05389
1.041
1.04244
1.03533
1.03548
1.02992
1.03422
1.03001
1.03422
1.02977
1.03388
1.03015
1.03292
1.03139
1.03348
1.03055
1.03357
1.02978
1.03368
1.02962
1.03339
1.02919
1.0333
1.02882
1.03311
1.02811
1.03294
1.02809
1.03336
1.02795
1.03357
1.02755
1.03364
1.02722
1.03419
1.02721
1.03449
1.02707
1.03517
1.02733
1.03552
1.02706
1.03618
1.02717
1.03688
1.02703
1.03761
1.02696
1.03833
1.02641
1.03865
1.02576
1.03856
1.02531
1.0382
1.02464
1.03861
1.02352
1.0389
1.02273
1.0393
1.02153
1.03945
1.02071
1.03973
1.01973
1.03928
1.01893
1.03883
1.01701
1.03927
1.01464
1.04029
1.01118
1.04246
1.00579
1.05517
0.95912
1.34192
1.05544
1.03878
1.05558
1.03803
1.04784
1.03279
1.04095
1.02891
1.04018
1.03006
1.0395
1.0295
1.03793
1.02895
1.03579
1.02926
1.03535
1.02912
1.03453
1.02964
1.03417
1.0291
1.03387
1.02898
1.03412
1.02876
1.034
1.02863
1.0341
1.02824
1.03391
1.0279
1.03396
1.02759
1.03433
1.02712
1.03493
1.02688
1.03527
1.02707
1.03549
1.02685
1.03611
1.02702
1.0366
1.02693
1.03719
1.02699
1.0378
1.02678
1.03824
1.02657
1.03878
1.02611
1.03926
1.02551
1.03934
1.0248
1.03932
1.02383
1.03974
1.02315
1.04004
1.02268
1.04065
1.02131
1.0409
1.01997
1.0402
1.01858
1.03946
1.0169
1.03958
1.01417
1.04
1.0109
1.04234
1.00671
1.05418
0.959848
1.34248
1.03489
1.05359
1.04149
1.04253
1.03562
1.03554
1.0302
1.03439
1.03027
1.03445
1.03032
1.03419
1.03082
1.03407
1.03126
1.03338
1.03086
1.0335
1.03034
1.03372
1.03015
1.03358
1.02981
1.03345
1.02923
1.03322
1.02882
1.03317
1.02838
1.03303
1.02806
1.03324
1.02791
1.03358
1.02762
1.03369
1.02738
1.03411
1.02731
1.03447
1.02717
1.03513
1.02742
1.03545
1.02722
1.03616
1.02731
1.03691
1.02719
1.03757
1.02703
1.0383
1.0265
1.0386
1.02586
1.03846
1.02541
1.03809
1.02474
1.03847
1.02363
1.03866
1.02282
1.03914
1.02166
1.03925
1.02085
1.03953
1.01981
1.03905
1.01892
1.03864
1.01709
1.0391
1.01474
1.04003
1.01114
1.04225
1.00666
1.05288
0.961064
1.33821
1.05502
1.03941
1.05528
1.03834
1.04763
1.03291
1.04093
1.0291
1.04011
1.03056
1.03933
1.03061
1.03717
1.02917
1.03582
1.02967
1.03563
1.03002
1.03448
1.02982
1.03424
1.0298
1.03426
1.02924
1.03407
1.029
1.03408
1.02883
1.03407
1.02865
1.03399
1.02832
1.03384
1.02788
1.03398
1.02764
1.03436
1.02722
1.03484
1.02695
1.03526
1.02709
1.03543
1.027
1.03607
1.02709
1.03652
1.02706
1.03712
1.02698
1.03779
1.02683
1.03817
1.02662
1.0387
1.02617
1.03913
1.02553
1.03914
1.02487
1.03915
1.02401
1.03962
1.02317
1.03984
1.0227
1.04033
1.02137
1.04053
1.02013
1.03987
1.01866
1.03923
1.01693
1.03933
1.01417
1.03987
1.01088
1.04216
1.00752
1.0521
0.96111
1.33675
1.03548
1.05323
1.04202
1.04245
1.03591
1.03563
1.03052
1.03456
1.03053
1.03465
1.03088
1.03468
1.03126
1.03386
1.03105
1.03373
1.03139
1.0337
1.0307
1.03422
1.03063
1.0338
1.03012
1.03332
1.02994
1.03337
1.02941
1.03313
1.02879
1.03309
1.02844
1.03298
1.02809
1.03341
1.02794
1.03354
1.02774
1.03375
1.0275
1.03408
1.02742
1.03444
1.0273
1.03515
1.0275
1.03547
1.02733
1.03619
1.02738
1.0369
1.02731
1.03752
1.02705
1.03818
1.02658
1.03846
1.02593
1.03834
1.02545
1.03805
1.02477
1.03836
1.02369
1.03851
1.02296
1.03894
1.02169
1.03912
1.021
1.03918
1.01991
1.03879
1.01898
1.03848
1.01715
1.03889
1.01479
1.03978
1.01106
1.04212
1.00711
1.05159
0.964324
1.33406
1.05464
1.04015
1.05495
1.03863
1.0474
1.03304
1.04091
1.02928
1.04003
1.03101
1.03934
1.03106
1.03731
1.03041
1.03651
1.0305
1.03572
1.03039
1.03465
1.03049
1.03415
1.03025
1.03403
1.02988
1.03403
1.02945
1.03397
1.02909
1.03409
1.02884
1.03394
1.02869
1.03391
1.0284
1.03378
1.02795
1.03396
1.02761
1.03433
1.02723
1.03486
1.02707
1.03529
1.02714
1.03542
1.02708
1.03602
1.02712
1.03645
1.02715
1.0371
1.0271
1.03775
1.02694
1.03819
1.02665
1.03866
1.02619
1.03897
1.02558
1.03896
1.02492
1.03897
1.0241
1.03943
1.02323
1.03966
1.02283
1.04014
1.02156
1.04033
1.02019
1.03951
1.01866
1.03898
1.0169
1.03908
1.01417
1.0397
1.01091
1.04195
1.00752
1.05154
0.961104
1.33368
1.03605
1.05303
1.04253
1.04239
1.0362
1.03576
1.0308
1.03471
1.03081
1.03484
1.03137
1.03512
1.03109
1.03499
1.03134
1.03398
1.03156
1.03422