/*--------------------------------*- C++ -*----------------------------------*\
| =========                 |                                                 |
| \\      /  F ield         | OpenFOAM: The Open Source CFD Toolbox           |
|  \\    /   O peration     | Version:  2206                                  |
|   \\  /    A nd           | Website:  www.openfoam.com                      |
|    \\/     M anipulation  |                                                 |
\*---------------------------------------------------------------------------*/
FoamFile
{
    version     2.0;
    format      ascii;
    arch        "LSB;label=32;scalar=64";
    class       volScalarField;
    location    "190";
    object      pPrime2Mean;
}
// * * * * * * * * * * * * * * * * * * * * * * * * * * * * * * * * * * * * * //

dimensions      [2 -2 -4 0 0 0 0];

internalField   nonuniform List<scalar> 
93840
(
0.0350953
0.00489414
0.0617836
0.00302075
0.0053694
0.0569658
0.00394576
0.00263119
0.00352355
0.0380446
0.000311212
0.00502258
0.0026009
0.00412074
0.0474057
0.000115123
0.00500386
0.00386438
0.00223678
0.00429993
0.072251
0.000225862
0.00296073
0.00394931
0.00564505
0.0022174
0.0104308
0.0997358
0.000133772
0.00352202
0.00293203
0.00187009
0.00442124
0.0045589
0.0111915
0.142357
0.00021402
0.00206237
0.00338723
0.00204558
0.00198735
0.00745161
0.00231869
0.0109576
0.140025
0.00018034
0.00139245
0.00225352
0.00218826
0.00372308
0.00341419
0.00541869
0.00300626
0.0104657
0.180571
0.000187372
0.000961363
0.00213481
0.00160755
0.00227221
0.00476189
0.00361065
0.00291625
0.00344834
0.0118351
0.153773
0.000165812
0.00122458
0.00184103
0.00137353
0.00313836
0.00259022
0.00458418
0.00227798
0.00233377
0.00448711
0.0115155
0.173557
0.000164687
0.00083687
0.00209976
0.00145592
0.00164494
0.00409105
0.00193802
0.0023141
0.00186742
0.0026263
0.0049017
0.0117284
0.161092
0.000189908
0.00101143
0.00204021
0.00129536
0.0023147
0.00183196
0.00354329
0.00197081
0.00163648
0.00247864
0.00197603
0.00351464
0.0114699
0.181171
0.000136537
0.000697777
0.00215586
0.0016226
0.00134895
0.0036194
0.0011908
0.00279829
0.00141098
0.0019726
0.00231482
0.0025155
0.00470005
0.0117076
0.164498
0.000177023
0.00085002
0.00209021
0.0012439
0.00192519
0.00137058
0.00271598
0.00137115
0.00167576
0.00175681
0.00152895
0.00235748
0.00217639
0.00393421
0.011356
0.186165
0.000138133
0.000621694
0.00225406
0.00171354
0.00112328
0.00329258
0.000779249
0.00259939
0.00107142
0.0020791
0.00158857
0.00204397
0.00252554
0.00244465
0.00434918
0.0115608
0.168648
0.000207579
0.000736602
0.00220845
0.00124142
0.00159567
0.00114624
0.00215524
0.000891255
0.00169644
0.00123681
0.00141307
0.00156828
0.00152877
0.00233216
0.00221622
0.00398305
0.0111504
0.190287
0.000168114
0.000624329
0.00234113
0.0017857
0.000940646
0.00302504
0.000507892
0.00237523
0.000763365
0.00218118
0.00105614
0.0020036
0.00155397
0.00210664
0.00258292
0.00243071
0.00419573
0.0113711
0.17169
0.000241937
0.000659065
0.00229276
0.00127434
0.00142152
0.000994156
0.0017725
0.000612413
0.00153275
0.00081435
0.00145139
0.00116731
0.00130959
0.00153789
0.00157004
0.00239079
0.00211279
0.00403592
0.0109089
0.192307
0.000237964
0.000702644
0.00242307
0.00183691
0.000817753
0.0028119
0.000365095
0.00216716
0.000582549
0.00220212
0.000780255
0.00191038
0.00109199
0.00188893
0.00167089
0.00206513
0.00248937
0.00225898
0.00411967
0.0111624
0.174412
0.000278578
0.000620679
0.00218945
0.00132921
0.00119429
0.000858227
0.00146449
0.000443804
0.00127847
0.000573718
0.00126157
0.000785311
0.00127013
0.00107683
0.00127079
0.00143984
0.00147617
0.00241279
0.00195979
0.00406321
0.0106888
0.192486
0.000348753
0.00080047
0.00243492
0.00178924
0.000717296
0.00259621
0.000316346
0.00198929
0.00045195
0.00223553
0.000559645
0.00194529
0.000808498
0.00184459
0.00117849
0.00175396
0.00149136
0.00197227
0.00251202
0.0020674
0.00405742
0.010987
0.177647
0.000288778
0.000644658
0.0021275
0.00138689
0.00106425
0.000763654
0.00123332
0.0003664
0.00110026
0.00046347
0.00105273
0.000505307
0.00105604
0.000752102
0.00119425
0.000989535
0.00127734
0.00144364
0.0013983
0.00243009
0.00182617
0.00407406
0.0104485
0.191546
0.000394009
0.000923486
0.0024575
0.00177902
0.000674717
0.00243801
0.000268325
0.00176263
0.000289199
0.00200334
0.000360308
0.00166778
0.000587111
0.00180155
0.000769368
0.00136903
0.00112107
0.00155773
0.00138007
0.00179743
0.00248754
0.00198568
0.00398493
0.010413
0.195239
0.000288411
0.000714863
0.00203897
0.00145821
0.000968933
0.000694958
0.00109877
0.000372891
0.00097018
0.000370112
0.000833188
0.000375181
0.000827261
0.000528511
0.000962646
0.000701898
0.00114229
0.000978932
0.00131736
0.00141487
0.00140895
0.00249552
0.00174129
0.00407883
0.00933024
0.203446
0.000406138
0.000950033
0.00256333
0.00175289
0.000650745
0.0023057
0.000199315
0.00151696
0.000197502
0.00168691
0.000291296
0.00140322
0.000386655
0.00161556
0.000564101
0.00146767
0.000795423
0.00138359
0.00100905
0.00140914
0.00134636
0.00170561
0.00248806
0.00191114
0.00400657
0.0115009
0.192667
0.000295693
0.00079382
0.00190444
0.00152125
0.000881944
0.000648912
0.0010411
0.000379638
0.000909514
0.000344628
0.000896794
0.000339092
0.00077586
0.000382006
0.00079768
0.000545943
0.000941624
0.000716253
0.00107607
0.000989942
0.00137203
0.00140656
0.00136451
0.00251879
0.00160277
0.00449749
0.0105202
0.194247
0.000395963
0.000906928
0.00265458
0.00156523
0.000626586
0.00212734
0.00016224
0.00129914
0.000123762
0.00143143
0.00018742
0.00126333
0.000283579
0.00132198
0.00038039
0.00131429
0.0005285
0.00131798
0.000760277
0.00139742
0.000982318
0.001409
0.00140025
0.00166362
0.00250747
0.00178077
0.00423575
0.0104852
0.1876
0.000315789
0.000833082
0.00172615
0.00155119
0.000828593
0.000628427
0.00095941
0.000373595
0.000843268
0.000358173
0.00080512
0.0003433
0.000752342
0.000333109
0.000785704
0.000399534
0.000806983
0.000543335
0.000949763
0.00073012
0.00105403
0.0010058
0.00128372
0.00148381
0.00138456
0.00255478
0.00156223
0.00409581
0.00968008
0.191713
0.000370109
0.000850135
0.00274154
0.00144043
0.000633785
0.00197997
0.000162413
0.00106139
0.000123671
0.00112474
0.000120345
0.00106447
0.000220614
0.00115621
0.000265562
0.00120704
0.000340297
0.00124754
0.000473951
0.00108678
0.000692454
0.00137754
0.000962896
0.00145675
0.00143592
0.00156649
0.00249068
0.00177463
0.00402636
0.00988117
0.186096
0.000352522
0.00082563
0.00152366
0.00157679
0.000765915
0.000604193
0.000849267
0.000357638
0.00079103
0.000336725
0.000818188
0.0003686
0.000764048
0.000325575
0.000723944
0.000308252
0.000773055
0.000417447
0.000795122
0.000517522
0.000954991
0.000726844
0.00104557
0.00104148
0.00125306
0.00152222
0.00144433
0.00251867
0.00152127
0.00413115
0.00911641
0.190308
0.000364887
0.000843833
0.00284603
0.00131601
0.00064615
0.00178646
0.000180169
0.000859651
0.000160192
0.000841314
0.000139343
0.000850834
0.000181624
0.000994063
0.000212579
0.00109402
0.000241741
0.00110029
0.000316072
0.00115048
0.000461424
0.00119255
0.000675964
0.00129909
0.00095252
0.00139086
0.00147581
0.00151841
0.00246328
0.00178818
0.00405228
0.00925258
0.185702
0.000370389
0.000923903
0.00131358
0.0016274
0.000727885
0.000594959
0.000752038
0.000341334
0.00072603
0.000325813
0.00072622
0.000304625
0.000722092
0.000318241
0.000686718
0.000281688
0.000643465
0.000288451
0.000734099
0.00039695
0.000793178
0.000511242
0.000942022
0.000722387
0.00101072
0.0010395
0.00121561
0.00154617
0.00140889
0.00252342
0.00149137
0.00400018
0.00857356
0.189978
0.000354823
0.00077083
0.00290392
0.00120824
0.000665449
0.00162521
0.000208978
0.00068942
0.000180373
0.000708364
0.000151515
0.000750874
0.000151165
0.000805483
0.000193418
0.000899373
0.000209462
0.000973975
0.000258623
0.000990786
0.000308704
0.00110226
0.000442086
0.00115653
0.000650658
0.00130902
0.000949963
0.00138752
0.00145408
0.00155081
0.00245564
0.00171895
0.00400145
0.0104452
0.185635
0.000364501
0.0010091
0.00112331
0.00165539
0.000679228
0.000567198
0.000677022
0.000335531
0.00063896
0.000293841
0.000685018
0.000286603
0.000619899
0.000261478
0.000633327
0.000284918
0.000631992
0.000251862
0.000614411
0.000277729
0.000697934
0.000397343
0.000778269
0.000496472
0.000923255
0.00067904
0.000969836
0.00103408
0.00120164
0.00156094
0.00138145
0.00253008
0.0015289
0.00423966
0.00977031
0.1895
0.000339921
0.000697936
0.00294962
0.00109128
0.000702073
0.00148652
0.000234104
0.000560663
0.000203612
0.000614417
0.00020605
0.000612296
0.000159007
0.000651169
0.00013856
0.000686331
0.000181609
0.000756063
0.000206427
0.000834434
0.000249199
0.00087608
0.000325383
0.000977276
0.000436695
0.00112266
0.000589621
0.00129605
0.00093971
0.00137382
0.00143147
0.00155534
0.00244792
0.00181954
0.00415206
0.00958835
0.185052
0.000359317
0.00112322
0.000965454
0.00170373
0.000618478
0.000545629
0.000628595
0.000339764
0.000567894
0.000333352
0.000598035
0.000289737
0.000555227
0.000247353
0.000531223
0.000222942
0.000557357
0.000215375
0.000621672
0.000237238
0.000612008
0.000264861
0.00070517
0.000355236
0.000827682
0.00045963
0.000909401
0.000674136
0.00103628
0.000996649
0.00118667
0.00156167
0.0013722
0.00252368
0.00155249
0.0040625
0.00906042
0.188866
0.000360678
0.000626857
0.00296656
0.000950351
0.000771845
0.00134261
0.000250901
0.000468726
0.000231763
0.000524217
0.000239425
0.00049781
0.000194843
0.000564144
0.00015874
0.000564249
0.00012825
0.000607829
0.00017216
0.000623253
0.000208388
0.000786747
0.000244432
0.000854303
0.000314993
0.00094321
0.000407747
0.00111384
0.000597324
0.00126168
0.000890866
0.00139198
0.00144018
0.00155835
0.00241948
0.00170638
0.00401033
0.00890724
0.184939
0.00035136
0.00124714
0.000833731
0.00176267
0.000567774
0.000559279
0.000600781
0.000356335
0.000529001
0.000347008
0.00053704
0.000284135
0.000487483
0.00025582
0.000498547
0.000235084
0.000489362
0.000216998
0.000509649
0.000197333
0.000573138
0.000201978
0.00060207
0.000257489
0.000711707
0.000349046
0.00082107
0.000452346
0.000904522
0.000677864
0.00103276
0.00102126
0.00120013
0.00158769
0.00138766
0.00251739
0.00146027
0.00404586
0.0101889
0.188559
0.00038262
0.000580613
0.00297991
0.00083735
0.00085495
0.00120395
0.000263025
0.000389597
0.00022721
0.000459673
0.000237803
0.000432818
0.000217953
0.000465457
0.000180245
0.000450184
0.000144631
0.000503397
0.000120539
0.000519257
0.000159566
0.00061207
0.000183291
0.000755385
0.000229533
0.000821841
0.00030532
0.000923333
0.00040057
0.00109367
0.00057336
0.00126224
0.000878542
0.00138267
0.00146078
0.00156749
0.00241772
0.00169192
0.00439288
0.0099937
0.184419
0.000345727
0.00136622
0.000714535
0.00179151
0.000506477
0.000582549
0.000582438
0.000390457
0.000466491
0.000336032
0.000471375
0.000272372
0.000443091
0.000297042
0.000453465
0.000230722
0.00045915
0.000219505
0.000457003
0.000205783
0.000481276
0.000189015
0.000569723
0.000201531
0.000588525
0.000247708
0.000699881
0.000318699
0.000811737
0.000441787
0.000906211
0.000674494
0.00103715
0.00101719
0.00122773
0.00159278
0.0013919
0.00251083
0.00162264
0.00429493
0.0092946
0.188061
0.000402569
0.000532922
0.00298874
0.000733311
0.000939593
0.00110889
0.000275621
0.000328941
0.000235132
0.000379318
0.000240197
0.00036953
0.000229841
0.000369132
0.000172558
0.000420146
0.000144748
0.000404141
0.000132327
0.00045622
0.000117869
0.000501892
0.000155004
0.000580015
0.00017158
0.00069842
0.000225341
0.000803637
0.00029906
0.000898155
0.000394108
0.00107227
0.00056814
0.00124339
0.000881229
0.00138542
0.00147508
0.00158968
0.00241374
0.00177426
0.00416043
0.009162
0.183174
0.000332133
0.00144812
0.00060967
0.0018013
0.000444599
0.000637456
0.000573263
0.000400819
0.000426752
0.00034998
0.000412634
0.000297419
0.000404465
0.000242516
0.000413016
0.000265601
0.000410425
0.000225122
0.000417038
0.000211591
0.000423693
0.000202944
0.000457247
0.000186025
0.000554095
0.00019051
0.000593512
0.000239201
0.000694384
0.000300206
0.000812991
0.000440349
0.000898544
0.000656826
0.00104849
0.0010113
0.0012315
0.00158206
0.0013911
0.00249204
0.00150281
0.00407089
0.00861672
0.186552
0.000425235
0.000493693
0.00296326
0.000610213
0.00101441
0.00100669
0.000283817
0.000290393
0.000258136
0.000335663
0.00024743
0.00032149
0.000222054
0.000308048
0.000202975
0.000361776
0.000162337
0.000358797
0.000122462
0.000358125
0.000135057
0.000394216
0.000115167
0.000477536
0.000152788
0.000561015
0.000163302
0.000653934
0.000222765
0.000768412
0.000299253
0.000869019
0.000394237
0.00104612
0.000555966
0.00122842
0.000877403
0.0014054
0.00147323
0.0016266
0.00242019
0.00170775
0.00398467
0.00846433
0.182014
0.000312296
0.00151615
0.000519032
0.00179915
0.000406328
0.000715596
0.000556991
0.00040499
0.000404367
0.000347747
0.000363407
0.000316784
0.000338012
0.000258618
0.000374456
0.00024186
0.000368348
0.000234188
0.000372474
0.00021969
0.000383736
0.000202183
0.000400285
0.000193231
0.000442851
0.000178301
0.000530569
0.000195883
0.00060249
0.000232148
0.000710851
0.000281167
0.000816787
0.000446426
0.000900925
0.000675146
0.00104174
0.001008
0.00122852
0.00157005
0.00140228
0.00249359
0.00146348
0.0040378
0.00947447
0.185434
0.00045819
0.000446746
0.00288712
0.000520348
0.00106904
0.000902261
0.00030824
0.000255614
0.00029177
0.000274744
0.000276035
0.000277715
0.000215795
0.000308077
0.000190663
0.000281265
0.000227477
0.000315498
0.00015844
0.000323723
0.000120722
0.00033393
0.00013027
0.000386117
0.000114544
0.000465839
0.000156588
0.000532329
0.000168552
0.000608486
0.000218127
0.000749825
0.000273338
0.000856708
0.000399076
0.00100349
0.000564932
0.00120552
0.00087692
0.00139417
0.00148135
0.00163911
0.00242533
0.00171337
0.00436483
0.00933103
0.180851
0.000306422
0.00156817
0.000457825
0.00179824
0.000387254
0.000792653
0.000519117
0.000416158
0.000389031
0.000322785
0.000308543
0.000294454
0.000293882
0.000277497
0.000283535
0.000240273
0.000335777
0.000217581
0.000349359
0.000204029
0.000353406
0.000213438
0.000363375
0.000196759
0.000376136
0.000186575
0.000438964
0.000164947
0.00051407
0.000179131
0.000585306
0.000227722
0.000726388
0.000303974
0.000811668
0.000445305
0.000876859
0.000674613
0.00105192
0.00100623
0.0012378
0.00156719
0.00142237
0.00249546
0.0016295
0.00428388
0.00863612
0.18432
0.000491046
0.00040147
0.00281915
0.000452784
0.00110547
0.000810122
0.000344328
0.000212033
0.000309083
0.000226491
0.000264922
0.00022912
0.000196121
0.000231357
0.000195541
0.00026184
0.000170751
0.00026082
0.000174567
0.000286925
0.000151189
0.000295705
0.000130212
0.000323228
0.000140329
0.000379652
0.000124628
0.000423515
0.00014071
0.000506257
0.000168146
0.00063883
0.000216157
0.00073484
0.000278486
0.000843748
0.000396273
0.000987909
0.000557754
0.00119612
0.000877837
0.00138756
0.00145978
0.00158778
0.00241821
0.00176618
0.00419522
0.00859302
0.179917
0.00029099
0.00158269
0.000403454
0.00177752
0.000379552
0.000853237
0.000473032
0.000446548
0.000391892
0.000315648
0.000272091
0.000277892
0.00025005
0.000250516
0.000268139
0.000232452
0.000263921
0.000221537
0.000290349
0.000197196
0.000338531
0.000180149
0.000333376
0.000207107
0.000331788
0.000197144
0.000360163
0.000185491
0.000434622
0.000160524
0.000494125
0.000154496
0.000578725
0.000220698
0.000719219
0.00030634
0.000812008
0.000450714
0.000885526
0.000668068
0.00104712
0.00100351
0.00124362
0.00153447
0.00145356
0.00249445
0.00157548
0.00413613
0.00801262
0.1834
0.000519343
0.000379638
0.00271274
0.000380573
0.00112638
0.000736749
0.000385042
0.000172863
0.000316626
0.000212652
0.000283944
0.000216313
0.000205443
0.000194183
0.000192315
0.000192417
0.000160498
0.000248126
0.000150269
0.00025135
0.000152242
0.00026159
0.000135083
0.0002738
0.000122514
0.000311694
0.00013669
0.000364554
0.000129769
0.000404804
0.000142851
0.000501705
0.000146388
0.000610234
0.000216867
0.000714668
0.000282925
0.000834918
0.000395338
0.000963696
0.000553085
0.00118937
0.000883088
0.00137892
0.00142235
0.00158591
0.00243219
0.0017301
0.00418957
0.00939057
0.178838
0.000292327
0.00157423
0.000357315
0.00175
0.000373831
0.000903506
0.000432754
0.00047427
0.000407595
0.000323207
0.000261198
0.000262314
0.000223651
0.000235856
0.000226668
0.000222631
0.000234718
0.00022097
0.000228761
0.000216781
0.00027518
0.000175905
0.000303675
0.000172722
0.000305571
0.000196119
0.000334746
0.000187509
0.00035197
0.000169745
0.00043132
0.000156649
0.000476391
0.000151152
0.000578767
0.000210562
0.000709465
0.000302933
0.000808069
0.000456266
0.000879378
0.000631457
0.00103622
0.00100174
0.00123567
0.00149856
0.00144782
0.00249656
0.0015659
0.00447809
0.00876879
0.182237
0.000553966
0.00037242
0.00257776
0.000333381
0.0011309
0.000674951
0.000418324
0.000142407
0.000315316
0.000209962
0.000269801
0.000208136
0.000219132
0.000160626
0.000211857
0.000171871
0.000171096
0.000197637
0.000149396
0.000217633
0.000137974
0.000226582
0.000138656
0.000234061
0.000127374
0.000267316
0.000119589
0.000301827
0.000135232
0.00034935
0.000135924
0.000395537
0.000143315
0.000499328
0.000154593
0.000589969
0.000221295
0.000697506
0.000293093
0.00082553
0.000396775
0.000965471
0.000518676
0.00117701
0.000863721
0.00134555
0.00139181
0.00159961
0.00242983
0.00187203
0.00434034
0.00857755
0.177627
0.000281089
0.00154815
0.000334815
0.00171386
0.000371804
0.000948912
0.000402028
0.000498348
0.00040982
0.000325371
0.00025519
0.000263967
0.000222569
0.000225248
0.000178878
0.000209243
0.000198334
0.000202141
0.000212866
0.000203321
0.000211106
0.000195031
0.000256065
0.000152917
0.000291794
0.000164638
0.000302503
0.000186737
0.000316734
0.000173178
0.000351817
0.000161888
0.000424879
0.000152262
0.000480538
0.00015644
0.00057828
0.00021431
0.000705866
0.000307599
0.000812287
0.000455282
0.000883594
0.00065957
0.00102603
0.000940095
0.00123991
0.00150936
0.00145218
0.00250138
0.00162431
0.00424223
0.00806439
0.181115
0.000584006
0.000352303
0.00245286
0.000297036
0.00112277
0.000615626
0.0004464
0.000121325
0.00032216
0.000200485
0.000250406
0.000173624
0.000191001
0.000147886
0.000199611
0.000142953
0.000186237
0.000161086
0.000160212
0.000178863
0.000142826
0.000197538
0.00013512
0.000210919
0.000115872
0.000223795
0.000120334
0.000258087
0.000117734
0.000287056
0.000134646
0.000340077
0.000137728
0.0003947
0.000143803
0.000484947
0.000151569
0.000577004
0.000216708
0.000690156
0.000298057
0.000804098
0.000394911
0.000956553
0.000530642
0.00117679
0.000814675
0.00134725
0.00139436
0.00160389
0.00243606
0.00177703
0.00416907
0.00800319
0.17639
0.000271632
0.00148298
0.000319696
0.00159668
0.00037827
0.000985708
0.000371908
0.000512262
0.00040741
0.000332458
0.000239281
0.000275112
0.000200464
0.000232515
0.000162867
0.000201798
0.000160339
0.000195035
0.000185581
0.000176096
0.000188897
0.000176872
0.000206659
0.000172574
0.000241226
0.000152151
0.000263665
0.000150427
0.000289551
0.000175266
0.000309608
0.000169673
0.000345475
0.000160213
0.000416986
0.000154639
0.000481703
0.00015639
0.000574265
0.000207368
0.000701238
0.000313067
0.000805414
0.000452922
0.000886767
0.000649363
0.00102781
0.000969235
0.00124027
0.00151319
0.00146446
0.00250616
0.00154907
0.00416194
0.00752544
0.179624
0.000599116
0.000336627
0.00231023
0.000286943
0.00110645
0.000556057
0.000473444
0.000113735
0.000323121
0.00019271
0.000238467
0.000147526
0.000178228
0.000131387
0.000169279
0.000123687
0.00015137
0.000129426
0.000171797
0.000149497
0.000142959
0.000155746
0.000133979
0.000181717
0.000141975
0.00019819
0.000112079
0.000224248
0.000117944
0.00024514
0.000122762
0.00027739
0.00013253
0.000333997
0.000142338
0.000398139
0.000149897
0.000475995
0.000160644
0.000567296
0.000222256
0.000677267
0.000302567
0.00080554
0.000403969
0.000944644
0.000531433
0.00115505
0.00081503
0.00134699
0.00139867
0.00161976
0.00243508
0.0017269
0.00408982
0.00749331
0.174813
0.000253228
0.00142799
0.000322384
0.00157599
0.000384829
0.00101707
0.000345864
0.000529109
0.000410558
0.000332277
0.000224805
0.000291226
0.000189778
0.000214857
0.000170763
0.000190106
0.000139662
0.000194173
0.000140202
0.000182249
0.000164311
0.000148069
0.000176593
0.000172804
0.000199863
0.000132222
0.00023128
0.00014092
0.000255794
0.000146523
0.000283318
0.000161969
0.000298215
0.000162586
0.000339593
0.000162231
0.000415205
0.000155663
0.000483919
0.000159469
0.000579402
0.000208408
0.000698353
0.000319817
0.000806892
0.000452247
0.000892092
0.000651628
0.00103278
0.000975553
0.0012391
0.00150931
0.00146861
0.00249129
0.00156152
0.00409853
0.00703614
0.178174
0.000607062
0.000333923
0.00221886
0.000277823
0.00108178
0.000500502
0.000501344
0.000114589
0.000322582
0.000217114
0.000225128
0.000143672
0.000188957
0.000131487
0.000153663
0.000119844
0.000147215
0.000108397
0.000141539
0.000120543
0.000159286
0.000134726
0.000144449
0.000135379
0.000136323
0.0001755
0.000137025
0.000190348
0.000109967
0.000217547
0.000115225
0.00023814
0.000126082
0.000278674
0.000135676
0.00032805
0.000149726
0.0003905
0.000154492
0.000467208
0.000163714
0.000552589
0.000224659
0.000671457
0.000308988
0.000803856
0.000402308
0.000939319
0.000543396
0.00109951
0.00082553
0.0013543
0.00141391
0.00162939
0.00244383
0.00170605
0.00410744
0.00798247
0.173287
0.000242784
0.00135899
0.000327557
0.00155056
0.000389869
0.00104385
0.000324858
0.000552628
0.000425398
0.000322799
0.000210868
0.0002917
0.000179405
0.000229411
0.000149854
0.000190726
0.000147832
0.000181035
0.000126329
0.000169926
0.000132567
0.000163537
0.000146897
0.000143736
0.000163975
0.000149872
0.000188968
0.000130787
0.000215695
0.000134542
0.000243991
0.000135977
0.000276002
0.000157238
0.00028884
0.000159759
0.000338073
0.000165875
0.00041195
0.000167323
0.000484409
0.000164153
0.000579111
0.00021025
0.000693304
0.000329022
0.000809221
0.000461661
0.000889023
0.000649735
0.00107187
0.00098326
0.00123149
0.00151317
0.00147334
0.0024979
0.00156307
0.00435093
0.00756574
0.176486
0.000611834
0.000328847
0.00206314
0.000269703
0.00105892
0.000451232
0.000525863
0.000122714
0.000329007
0.00023297
0.000218866
0.000154503
0.000179833
0.000123585
0.000144746
0.000110747
0.00015012
0.000100265
0.00013494
9.89944e-05
0.000137012
0.000108916
0.00014652
0.000115827
0.00013916
0.000137658
0.000137785
0.000170693
0.000127011
0.000185153
0.000107295
0.000213137
0.000116031
0.00023013
0.000126358
0.000275642
0.00013655
0.000321057
0.000157479
0.000385358
0.000159521
0.000465677
0.000166711
0.000547574
0.000228021
0.000669046
0.000312074
0.000802465
0.000409969
0.000933253
0.000555828
0.00109832
0.000842225
0.00135724
0.00142916
0.00164217
0.00244804
0.00180709
0.00431768
0.00744058
0.171671
0.00023545
0.00127074
0.000331679
0.00152938
0.000395361
0.00106778
0.000308794
0.000575287
0.000450815
0.000314535
0.000221363
0.000279933
0.0001711
0.000245801
0.000138518
0.000201335
0.000138593
0.00018102
0.00013128
0.000166522
0.000120318
0.000163911
0.000119068
0.000154583
0.000135145
0.000141633
0.000158531
0.000142427
0.000175812
0.000130034
0.000209987
0.000130021
0.000235386
0.000131592
0.000268391
0.000150768
0.000279663
0.000157145
0.000332634
0.000168917
0.000399103
0.000172703
0.000484527
0.000163799
0.000577013
0.00021647
0.00069022
0.000333426
0.000813815
0.000467598
0.000885012
0.000654205
0.00106149
0.000984521
0.00123834
0.00151977
0.00148678
0.00249044
0.00161205
0.00431106
0.00705624
0.174713
0.000617025
0.000320035
0.00200657
0.000265239
0.00103675
0.000412339
0.000542359
0.000141225
0.000347553
0.000243248
0.000212913
0.000180632
0.000164404
0.000120112
0.000134431
0.000114233
0.000145132
9.55309e-05
0.000139105
8.98735e-05
0.000132761
8.87936e-05
0.000131418
9.72963e-05
0.000138666
0.000105316
0.000132534
0.00012816
0.000134125
0.000159619
0.00012588
0.000180887
0.000107258
0.000203601
0.000114686
0.000223923
0.000125496
0.000274124
0.000137641
0.000316586
0.000163925
0.000385714
0.000162373
0.00046562
0.000176081
0.000546873
0.000232853
0.000662266
0.000314477
0.000786992
0.00041719
0.000919969
0.000567234
0.00109919
0.000853172
0.00135866
0.0014375
0.00164772
0.002444
0.00177385
0.0042638
0.0069135
0.170085
0.000224317
0.00118921
0.000321229
0.00151128
0.000389545
0.00108862
0.000298719
0.000588547
0.000467174
0.000305509
0.000234359
0.000265065
0.000177138
0.000235191
0.000141438
0.000218789
0.000115082
0.000191357
0.000125159
0.000171249
0.00011821
0.000159486
0.000109365
0.000151119
0.000110309
0.000148067
0.000125171
0.000137318
0.000150006
0.000136873
0.000169927
0.000129392
0.00020104
0.000126678
0.000228213
0.00012924
0.000260653
0.000146588
0.000270917
0.000152295
0.000329845
0.000173224
0.000399095
0.000176133
0.000482162
0.000167786
0.00057897
0.000222303
0.000685222
0.000333897
0.000795853
0.000473488
0.000883432
0.000661494
0.00105764
0.00099082
0.00123492
0.00152237
0.00148478
0.0025012
0.00158197
0.00429215
0.00754511
0.172966
0.000620144
0.000315453
0.00195359
0.000256185
0.00101582
0.000380982
0.000552569
0.000165626
0.000377433
0.000255707
0.000220485
0.000197446
0.000158027
0.000138599
0.00013077
0.000104986
0.000124422
9.96449e-05
0.000125962
8.7569e-05
0.000129326
8.45687e-05
0.000129483
8.78532e-05
0.000126538
8.86796e-05
0.000123609
9.85602e-05
0.000129364
0.000123849
0.000132835
0.000148662
0.000122213
0.000170879
0.000107086
0.000196876
0.000112665
0.00021843
0.000120449
0.000276416
0.000139753
0.000313264
0.000167702
0.000390979
0.00016773
0.000469664
0.000181577
0.000537941
0.000230354
0.000660022
0.000317707
0.000805261
0.000426705
0.000919038
0.00058209
0.0011005
0.00086393
0.00135621
0.00143196
0.00160475
0.00244996
0.00176627
0.00455915
0.00742427
0.168563
0.000213926
0.00114187
0.000321744
0.00149726
0.00038334
0.00110713
0.000293285
0.000591394
0.000480426
0.000301944
0.000233532
0.00025691
0.000184735
0.000218006
0.000136761
0.000202696
0.000127141
0.000173938
0.000106626
0.000172201
0.000116352
0.000166389
9.88086e-05
0.000158079
0.000104143
0.000152443
0.000104865
0.000147387
0.000118996
0.000134232
0.000139748
0.000135092
0.000161666
0.000129124
0.000191507
0.000123059
0.000221283
0.000124276
0.00025181
0.000143343
0.000266029
0.000149806
0.000326907
0.000174871
0.000397881
0.000177774
0.000483856
0.000172784
0.000571543
0.000226001
0.000685813
0.00033474
0.000789686
0.000476607
0.00087781
0.000671251
0.00105444
0.000993107
0.00123419
0.0015047
0.00153696
0.00251509
0.00165421
0.00452994
0.00696853
0.171151
0.000624135
0.000304343
0.00189994
0.000243054
0.000997709
0.000358785
0.000560869
0.000188895
0.000404768
0.000261058
0.00022997
0.000196814
0.000154122
0.000138558
0.000137932
0.000116052
0.000113939
9.82605e-05
0.000121994
8.4652e-05
0.000116967
8.08526e-05
0.000117289
8.20467e-05
0.000124717
7.90162e-05
0.000125299
8.4091e-05
0.000121659
9.43802e-05
0.00012759
0.000115012
0.000130218
0.000139367
0.000120796
0.000164864
0.000107553
0.000194098
0.000114364
0.000214282
0.000119485
0.000271441
0.000139168
0.000313791
0.000171846
0.000392799
0.000174121
0.000466985
0.00018591
0.000544085
0.000221928
0.000654877
0.000320787
0.000806338
0.000435489
0.000917054
0.000594339
0.00109982
0.000876211
0.00135742
0.00141619
0.00158241
0.00246606
0.00180439
0.0045023
0.00688696
0.166753
0.000200279
0.00109947
0.000318384
0.00148742
0.000380587
0.00112292
0.000288937
0.000593865
0.00048807
0.000306797
0.000231619
0.000256635
0.000186467
0.000196533
0.000159163
0.000180508
0.000119724
0.000174767
0.000103181
0.000148695
0.000108993
0.000154972
0.000105213
0.000165219
9.57869e-05
0.000153221
9.96147e-05
0.00014844
0.000100144
0.000142984
0.000115005
0.000135267
0.000130883
0.000132788
0.000151882
0.000128144
0.000182611
0.000119286
0.000212818
0.000125961
0.00024115
0.000139988
0.000263258
0.000150473
0.000324509
0.000178198
0.000396795
0.000180367
0.00047284
0.000177897
0.000565558
0.000213746
0.000683592
0.000334526
0.000787058
0.000479661
0.000876505
0.000684053
0.00105433
0.000996202
0.0012413
0.00146905
0.00152893
0.00252564
0.00160136
0.00445413
0.006454
0.168985
0.000620163
0.000303385
0.00183904
0.000238564
0.000982461
0.000345622
0.000569649
0.000210462
0.00042706
0.000266068
0.000251925
0.00020135
0.000164496
0.000152579
0.000140114
0.000124442
0.000122337
0.000112619
0.000101817
8.93997e-05
0.000126133
7.9329e-05
0.00011615
7.70529e-05
0.000114187
7.94927e-05
0.00012349
7.75659e-05
0.000125629
8.08734e-05
0.000121216
9.0169e-05
0.000124085
0.000107596
0.000126455
0.000129386
0.00011948
0.000157136
0.000105626
0.000188974
0.0001112
0.000212883
0.000118512
0.000264958
0.000138443
0.000312635
0.000173655
0.000395374
0.000178864
0.000472221
0.000191829
0.000543964
0.000234101
0.000652294
0.000324383
0.000799457
0.000446178
0.000913677
0.000611387
0.00109948
0.000886101
0.00136381
0.00136765
0.00157779
0.00246056
0.0017639
0.00438749
0.00640581
0.164744
0.000187279
0.00106032
0.000332659
0.00147036
0.000382954
0.00113512
0.000284445
0.000597104
0.000491536
0.000322015
0.000238847
0.000251694
0.000200525
0.000207705
0.00016129
0.000181862
0.0001353
0.000153722
0.000100595
0.000153421
9.69733e-05
0.00013221
9.90212e-05
0.000140923
0.000100349
0.000160059
9.16737e-05
0.000149682
9.42887e-05
0.000145224
9.43355e-05
0.000142336
0.000107585
0.000133075
0.000123878
0.000130815
0.000144154
0.000123852
0.000175665
0.000112952
0.000206177
0.000118663
0.000235228
0.000137252
0.000259715
0.000153108
0.000322051
0.000179107
0.000399192
0.000183236
0.000478058
0.000184043
0.000562581
0.000213166
0.000680321
0.000327866
0.000782474
0.000483581
0.000877725
0.000697885
0.00105783
0.000998689
0.0012476
0.00144311
0.00152358
0.00253112
0.00159499
0.00435007
0.00600879
0.166953
0.000610934
0.000303274
0.00179402
0.000244734
0.000968548
0.000336435
0.000574279
0.000231565
0.000443456
0.000273492
0.00026243
0.0002112
0.000192438
0.00017852
0.000149414
0.000137464
0.000105117
0.000109547
9.34332e-05
0.000103036
9.57014e-05
8.28305e-05
0.000108891
7.39035e-05
0.000112629
7.74033e-05
0.000114856
7.62735e-05
0.000119229
7.84313e-05
0.00012587
7.89877e-05
0.00012186
8.52425e-05
0.000124453
0.000104711
0.000124879
0.000120831
0.000118209
0.000150684
0.000102342
0.000184933
0.000105456
0.000211269