/*--------------------------------*- C++ -*----------------------------------*\
| =========                 |                                                 |
| \\      /  F ield         | OpenFOAM: The Open Source CFD Toolbox           |
|  \\    /   O peration     | Version:  2206                                  |
|   \\  /    A nd           | Website:  www.openfoam.com                      |
|    \\/     M anipulation  |                                                 |
\*---------------------------------------------------------------------------*/
FoamFile
{
    version     2.0;
    format      ascii;
    arch        "LSB;label=32;scalar=64";
    class       volScalarField;
    location    "190";
    object      rho;
}
// * * * * * * * * * * * * * * * * * * * * * * * * * * * * * * * * * * * * * //

dimensions      [1 -3 0 0 0 0 0];

internalField   nonuniform List<scalar> 
93840
(
2.71145
0.473827
2.74228
1.39758
0.497255
2.52086
0.594655
1.13004
0.622597
2.1187
1.16967
0.907163
1.15735
0.768418
1.91413
0.986405
1.05129
0.896791
1.25933
0.815255
1.83373
1.08492
0.958168
1.08468
0.76802
1.1376
0.78574
1.87498
0.987136
1.08077
0.943149
1.11186
0.82791
1.15101
0.804587
1.89164
1.08072
0.986872
1.09551
0.981913
1.06587
0.863701
1.0614
0.794256
1.91014
0.997205
1.08048
0.966423
1.05228
0.972534
1.02898
0.949648
1.04019
0.792603
1.92058
1.07707
0.997841
1.10302
0.984312
1.04564
0.963364
0.986843
0.94926
1.03412
0.790409
1.93055
0.995494
1.08138
0.983133
1.07031
0.986816
1.01777
0.973002
1.00498
0.960619
1.02392
0.788926
1.9344
1.06936
0.996243
1.10775
1.00892
1.06267
0.982608
1.0174
0.958282
0.986832
0.951424
1.02401
0.788864
1.93954
0.989266
1.0711
0.986992
1.08043
0.995609
1.03307
0.991296
1.01814
0.967201
1.00147
0.959586
1.02122
0.788765
1.94212
1.06611
0.985561
1.09656
1.00825
1.06723
0.99351
1.0324
0.980689
1.01685
0.957491
0.989186
0.952629
1.02109
0.788913
1.94486
0.987654
1.06528
0.989522
1.07488
1.00269
1.04217
0.991879
1.03864
0.979007
1.02181
0.961006
1.00146
0.962263
1.01961
0.789071
1.94599
1.06546
0.981799
1.09199
1.00496
1.06904
0.99969
1.03537
1.00084
1.03191
0.982739
1.0142
0.958817
0.990053
0.952485
1.01924
0.78963
1.94748
0.984686
1.06468
0.996218
1.07345
1.00994
1.04641
0.986929
1.05284
0.976541
1.03709
0.973343
1.00581
0.963166
1.00217
0.964049
1.01834
0.789874
1.94786
1.07396
0.986036
1.09149
1.00141
1.06888
0.997696
1.03789
1.00897
1.03987
0.997559
1.02615
0.978593
1.0129
0.960666
0.988327
0.953423
1.01831
0.790479
1.94853
0.988362
1.06712
0.998486
1.07298
1.01384
1.04756
0.984607
1.04271
0.986619
1.03944
0.967295
1.04101
0.972506
1.01226
0.966038
0.999299
0.963035
1.01777
0.79108
1.94833
1.07164
0.993376
1.09123
1.00263
1.0661
0.9974
1.04184
1.00095
1.04099
1.01057
1.04302
0.996294
1.02381
0.981828
1.0118
0.967868
0.986335
0.952553
1.01788
0.791833
1.9484
0.990251
1.06517
1.00225
1.07284
1.01213
1.04994
0.984837
1.03791
0.991546
1.04026
0.974253
1.0441
0.975434
1.03491
0.983407
1.00731
0.962555
1.00306
0.962416
1.01755
0.792436
1.94804
1.06416
0.993912
1.09354
1.00844
1.06452
1.00822
1.04197
0.994419
1.04199
1.00416
1.04103
0.996175
1.02837
0.994788
1.02241
0.990782
1.00829
0.96565
0.983992
0.949862
1.01778
0.793538
1.94774
0.987119
1.06435
1.00649
1.07355
1.00987
1.05479
0.9844
1.041
1.00152
1.04458
0.994047
1.0351
0.980336
1.04397
0.980955
1.03099
0.973837
1.0098
0.966791
1.00029
0.958088
1.0176
0.794111
1.94715
1.07125
0.981642
1.10096
1.01545
1.06836
1.01524
1.0417
0.997104
1.04035
1.00051
1.04099
1.00152
1.04378
1.00574
1.02259
1.00185
1.0199
0.989018
1.00665
0.96465
0.984509
0.948632
1.01786
0.795292
1.94674
0.983644
1.06631
1.01716
1.07489
1.01074
1.0563
0.98904
1.04453
1.00213
1.04536
0.989872
1.04357
0.99209
1.03627
0.990563
1.02778
0.981287
1.03306
0.976755
1.01237
0.966241
1.00023
0.955899
1.0178
0.796157
1.94586
1.06855
0.992406
1.09019
1.01577
1.06975
1.02209
1.0408
1.00213
1.0369
0.996479
1.04753
0.992802
1.04368
1.00456
1.03388
1.00858
1.02185
1.00268
1.0204
0.983434
1.00837
0.96697
0.984525
0.946971
1.01813
0.797393
1.94495
0.990376
1.05836
1.01518
1.07953
1.01164
1.0586
0.994724
1.0378
0.996886
1.05049
0.999689
1.0512
0.98584
1.0412
0.996728
1.03221
0.987916
1.03186
0.987124
1.02682
0.97632
1.01277
0.964356
0.999511
0.956356
1.01818
0.79869
1.94372
1.05967
0.992127
1.08533
1.01916
1.06602
1.02405
1.041
0.997917
1.03965
1.00086
1.04523
1.00142
1.04881
1.00364
1.03642
1.00864
1.03139
1.00544
1.02022
1.00298
1.01924
0.985339
1.00646
0.962836
0.985814
0.946813
1.01864
0.79992
1.94273
0.980385
1.0514
1.00898
1.07748
1.01116
1.06013
1.00067
1.04093
0.99834
1.03845
1.00008
1.05457
0.996484
1.04886
0.992484
1.03486
0.994874
1.03073
0.980296
1.02046
0.992836
1.02032
0.979649
1.00673
0.95949
0.999057
0.9531
1.01892
0.80159
1.94122
1.05531
0.987177
1.08798
1.02381
1.06685
1.02581
1.04297
0.995529
1.03428
1.00732
1.04471
1.00271
1.04496
1.00467
1.0411
1.00968
1.02975
1.0031
1.02746
1.00632
1.01736
0.999268
1.01537
0.979233
1.00474
0.961209
0.987302
0.94574
1.01952
0.802561
1.93965
0.980685
1.0462
1.00941
1.06839
1.00969
1.05486
1.00284
1.03252
1.00056
1.03181
1.00587
1.03947
1.00634
1.0488
0.999483
1.04278
1.0005
1.02849
0.99677
1.0255
0.992123
1.01226
0.994552
1.02017
0.977992
1.01057
0.957848
0.999804
0.951279
1.01993
0.805191
1.93762
1.05354
0.980078
1.08478
1.01943
1.06935
1.02459
1.04269
1.00349
1.03559
0.99753
1.03206
1.00228
1.04152
1.00901
1.04181
1.00695
1.03823
1.01053
1.02801
1.00071
1.02216
1.00273
1.01308
0.992223
1.01857
0.975388
1.01043
0.958572
0.988639
0.944488
1.02069
0.806056
1.93624
0.977544
1.04746
1.00674
1.06284
1.01489
1.05009
1.00827
1.03146
0.994942
1.02945
1.00188
1.03153
0.994979
1.03606
1.00351
1.0432
1.00043
1.03452
0.99535
1.02418
1.00001
1.01855
0.993444
1.01599
0.988338
1.02292
0.973646
1.0111
0.956662
0.997931
0.950924
1.02171
0.809067
1.93554
1.05056
0.977067
1.07853
1.01748
1.07048
1.02045
1.04246
1.00657
1.03411
1
1.0267
1.00055
1.03795
1.00246
1.04002
1.00316
1.03922
1.00427
1.03637
1.00564
1.02281
1.00159
1.01688
0.998629
1.0189
0.985145
1.01952
0.980364
1.00871
0.954901
0.986094
0.944584
1.02561
0.792258
1.93425
0.976045
1.04519
1.0043
1.06104
1.02068
1.04923
1.01046
1.03483
0.998088
1.02592
0.994569
1.03002
0.997029
1.04025
1.00275
1.03598
0.998696
1.04196
0.997211
1.03237
0.998753
1.02179
0.999096
1.01482
0.992289
1.01972
0.980907
1.01602
0.981335
1.00849
0.951445
0.998793
0.948247
1.04153
0.795415
1.93248
1.05467
0.980831
1.07306
1.01566
1.06879
1.01792
1.0461
1.00779
1.0335
1.00084
1.03145
0.995146
1.02882
0.998608
1.03696
1.00272
1.04404
0.997016
1.04261
1.00219
1.03081
1.00523
1.02317
1.00036
1.01215
0.992798
1.02439
0.990357
1.01464
0.973037
1.00812
0.951969
0.987551
0.937067
1.03869
0.800668
1.93076
0.975209
1.04736
1.00291
1.06017
1.02159
1.04835
1.01726
1.0408
1.00993
1.02887
0.98948
1.02464
0.988041
1.03401
0.998697
1.03669
0.998928
1.04047
0.994238
1.04173
0.995175
1.03066
0.996956
1.01824
0.997702
1.00979
0.987943
1.02337
0.99235
1.01238
0.973207
1.0103
0.949869
0.997101
0.945752
1.03605
0.802851
1.92949
1.05831
0.977283
1.07854
1.01628
1.07273
1.0255
1.04876
1.00731
1.03929
0.994042
1.0289
0.988367
1.03038
0.991236
1.03016
0.997703
1.03301
0.995547
1.04569
0.999046
1.03939
0.999312
1.02817
1.00483
1.01817
1.00188
1.01085
0.990591
1.0197
0.992749
1.0147
0.97575
1.01442
0.948617
0.992744
0.944307
1.03466
0.807416
1.92855
0.979223
1.05311
1.01503
1.05736
1.02657
1.05136
1.0231
1.04329
1.02071
1.02844
1.00126
1.02304
0.991745
1.02558
0.992893
1.0357
1.00019
1.03692
0.993358
1.04355
0.99168
1.0369
0.997891
1.02795
0.99865
1.01588
0.994413
1.01481
0.988057
1.01942
0.98858
1.0118
0.97041
1.01513
0.947844
0.999687
0.948106
1.03712
0.790739
1.92752
1.06322
1.00319
1.06921
1.01458
1.0796
1.03188
1.05346
1.01059
1.04472
0.998415
1.04197
0.988251
1.03165
0.985874
1.03276
0.996976
1.02754
0.994395
1.03345
1.00153
1.04473
1.00003
1.03575
1.00412
1.02575
1.00246
1.01436
0.996422
1.0169
0.990995
1.01853
0.987743
1.01316
0.965848
1.02157
0.947432
0.996139
0.943889
1.05059
0.795744
1.92583
0.99109
1.03973
1.01266
1.06498
1.03399
1.05356
1.03108
1.04281
1.01896
1.0285
1.00364
1.03183
0.993742
1.02022
0.994689
1.02351
0.998606
1.03399
0.998297
1.03479
0.994998
1.04217
1.00156
1.03354
1.00184
1.02317
1.00127
1.01211
0.993856
1.01702
0.990521
1.01724
0.986773
1.01547
0.962637
1.01802
0.946705
1.00255
0.941874
1.04736
0.79999
1.92424
1.06306
1.00499
1.07254
1.02349
1.08051
1.03711
1.05996
1.01152
1.05325
1.00431
1.04366
0.996167
1.03649
0.994148
1.03222
0.993197
1.0252
0.99769
1.02608
0.997503
1.03097
1.00094
1.04069
1.00853
1.03085
1.01103
1.02046
1.00634
1.0125
0.991875
1.01742
0.992137
1.0163
0.987609
1.01666
0.961776
1.02108
0.948902
0.999457
0.941696
1.04444
0.804572
1.92257
1.00219
1.03699
1.00836
1.06385
1.03889
1.05577
1.03627
1.04093
1.01959
1.02809
1.01385
1.02892
0.999372
1.03337
0.993119
1.01812
0.997892
1.02134
0.997476
1.03033
0.998928
1.03351
1.00278
1.03875
1.00749
1.02782
1.00552
1.01791
0.998347
1.01213
0.990617
1.02043
0.987749
1.01452
0.984401
1.0165
0.960389
1.01999
0.947372
1.00435
0.94901
1.04092
0.807693
1.92136
1.05847
1.00411
1.07477
1.02611
1.08068
1.03807
1.05871
1.00984
1.05451
1.022
1.0416
1.00126
1.04007
0.994076
1.03172
0.995743
1.02916
0.99567
1.01986
0.9975
1.02384
1.00288
1.02976
1.00547
1.03712
1.01337
1.02514
1.01437
1.0158
1.00117
1.01172
0.988443
1.02025
0.992723
1.01349
0.981048
1.01581
0.95795
1.01792
0.949964
1.00082
0.946028
1.03867
0.81118
1.92029
1.00606
1.03299
1.00991
1.06321
1.04004
1.05456
1.0408
1.04146
1.03081
1.02519
1.01644
1.02286
1.00785
1.0276
1.00303
1.03095
0.994985
1.01857
0.997622
1.01919
0.995191
1.02642
1.00115
1.03481
1.00693
1.03548
1.01446
1.02261
1.00774
1.01331
0.999284
1.01089
0.987342
1.01983
0.98916
1.01607
0.97847
1.01979
0.960211
1.02049
0.947261
1.00606
0.94967
1.0413
0.797518
1.91879
1.04953
0.994914
1.06227
1.02256
1.07792
1.03767
1.05908
1.01322
1.05925
1.01614
1.03917
1.00842
1.02606
0.99798
1.02664
0.994942
1.02922
0.995376
1.0275
0.991383
1.01911
0.998738
1.02374
1.00148
1.03137
1.00708
1.03213
1.01713
1.02028
1.00994
1.01146
0.998635
1.01369
0.986667
1.01852
0.990248
1.01856
0.97689
1.02478
0.962081
1.02064
0.949255
1.00473
0.948814
1.05245
0.801
1.91694
0.998042
1.0352
0.997674
1.06122
1.03793
1.05193
1.0424
1.03707
1.03469
1.02899
1.02435
1.02633
1.01739
1.02432
1.0079
1.02726
1.0022
1.02646
0.987806
1.02015
0.994611
1.02038
0.995373
1.02663
0.999356
1.03599
1.01179
1.02972
1.01654
1.01884
1.00793
1.00984
0.99666
1.01563
0.9887
1.01772
0.988653
1.02062
0.974879
1.02528
0.961068
1.025
0.951257
1.00873
0.944776
1.04938
0.806736
1.91515
1.05208
0.982387
1.05805
1.02976
1.07361
1.03978
1.05971
1.01353
1.06043
1.0154
1.04319
1.00837
1.02701
1.00641
1.02272
1.00744
1.0235
0.996772
1.02774
0.993229
1.03047
0.991658
1.02041
0.997486
1.02269
0.998868
1.03098
1.01175
1.02823
1.01527
1.01721
1.00741
1.00931
0.99522
1.0148
0.988938
1.01498
0.988799
1.01959
0.974837
1.02559
0.963463
1.0256
0.954446
1.00628
0.944922
1.0459
0.809157
1.91377
0.987043
1.04345
0.994345
1.05942
1.03459
1.05367
1.0432
1.03925
1.03369
1.03478
1.02467
1.02663
1.02216
1.02456
1.01413
1.01763
1.00641
1.02613
1.00065
1.02634
0.99557
1.02219
0.993343
1.02038
0.996044
1.02679
0.999733
1.03303
1.01258
1.02595
1.01397
1.01549
1.00597
1.01108
0.99254
1.01617
0.989536
1.01613
0.986589
1.02322
0.971747
1.02872
0.965993
1.02722
0.949339
1.012
0.950115
1.04372
0.814038
1.91252
1.06528
0.986672
1.06459
1.02972
1.06822
1.04682
1.06261
1.01332
1.0705
1.01497
1.04588
1.00942
1.03071
1.00528
1.02449
1.00486
1.0128
1.0029
1.02819
0.994465
1.02472
0.993661
1.03115
0.99117
1.0225
0.993938
1.02569
1.00033
1.03123
1.01155
1.02403
1.01214
1.0137
1.00432
1.01462
0.990999
1.01814
0.989972
1.01571
0.986719
1.0238
0.975189
1.0321
0.964607
1.02869
0.952637
1.00987
0.948881
1.04584
0.79971
1.91128
0.996799
1.0454
1.00776
1.05417
1.03043
1.05445
1.04098
1.04296
1.03625
1.03848
1.02445
1.03149
1.01974
1.02609
1.01146
1.02077
1.00553
1.02313
1.00153
1.02541
1.00381
1.02365
0.996182
1.02175
0.992138
1.02018
0.99577
1.02901
0.999766
1.03114
1.01037
1.02292
1.00978
1.01372
1.00232
1.01817
0.989698
1.01845
0.989726
1.01555
0.98329
1.02819
0.97457
1.03348
0.961448
1.02942
0.954092
1.01594
0.952244
1.05579
0.804897
1.90961
1.06291
0.991455
1.05253
1.02262
1.06604
1.05367
1.06231
1.01526
1.06638
1.01746
1.04322
1.00491
1.03329
1.01109
1.02223
1.00881
1.02126
1.00127
1.02084
0.999361
1.02336
0.997555
1.02231
0.993017
1.02675
0.992484
1.0213
0.995718
1.02446
1.00144
1.03063
1.00934
1.02309
1.00738
1.01437
1.00042
1.02214
0.988623
1.02084
0.989601
1.01574
0.986297
1.02978
0.976252
1.03683
0.963364
1.03324
0.956625
1.00995
0.944888
1.05249
0.808464
1.90801
1.00161
1.04532
1.00422
1.05762
1.03032
1.0563
1.04192
1.05053
1.03752
1.03965
1.02749
1.03981
1.02114
1.03213
1.01917
1.02435
1.00633
1.0231
1.00635
1.02056
1.00035
1.02425
1.00276
1.02198
0.99507
1.02328
0.993802
1.01949
0.995904
1.02624
1.00335
1.03004
1.0082
1.02389
1.00493
1.01685
0.998566
1.02281
0.989624
1.01723
0.99148
1.01638
0.985232
1.03072
0.975251
1.03256
0.966564
1.0315
0.956394
1.01814
0.950307
1.04973
0.813109
1.90632
1.06264
0.996085
1.05854
1.02255
1.06577
1.05786
1.06379
1.0169
1.06688
1.02052
1.05991
1.00748
1.04289
1.01579
1.02935
1.01299
1.02196
1.00074
1.02756
0.997889
1.02376
0.996684
1.02041
0.997087
1.02053
0.993976
1.02074
0.993908
1.02067
0.992684
1.0227
1.00222
1.02916
1.00642
1.02637
1.00282
1.01694
0.996621
1.02315
0.989836
1.01732
0.98994
1.01697
0.988824
1.03392
0.975287
1.03754
0.969751
1.03415
0.958285
1.00848
0.947464
1.04682
0.815718
1.9046
1.00253
1.04682
1.00838
1.05846
1.03354
1.05839
1.04426
1.05651
1.03174
1.05208
1.02103
1.04006
1.02194
1.03456
1.02314
1.02649
1.00828
1.03064
1.00574
1.0243
1.00004
1.02511
0.997675
1.02094
1.00294
1.02052
0.998373
1.02018
0.993249
1.01842
0.998675
1.02126
1.00216
1.02878
1.00441
1.02915
1.00126
1.01955
0.997407
1.02022
0.988042
1.01743
0.991096
1.01886
0.987253
1.03277
0.974852
1.04049
0.974798
1.03252
0.957598
1.01766
0.954975
1.0438
0.820327
1.90242
1.06366
1.00807
1.05591
1.02192
1.06571
1.0602
1.06595
1.01697
1.06871
1.02476
1.06266
1.01591
1.05159
1.01411
1.0403
1.014
1.02874
1.00597
1.02405
0.999553
1.02426
0.998447
1.02834
0.995053
1.02172
0.997999
1.02002
0.993962
1.02057
0.991985
1.02097
0.994276
1.01978
0.999725
1.02876
1.00307
1.03086
1.0006
1.02253
0.995984
1.02328
0.98671
1.01801
0.989692
1.01872
0.989148
1.03367
0.976671
1.03804
0.973665
1.03204
0.963079
1.00829
0.950746
1.04124
0.822061
1.90041
1.00433
1.045
1.01378
1.06181
1.03454
1.05781
1.04566
1.05943
1.02903
1.05693
1.02865
1.04862
1.02062
1.04029
1.019
1.0321
1.01905
1.03361
1.00556
1.02574
1.00078
1.02336
0.999754
1.0264
0.994461
1.021
0.997678
1.02199
0.99499
1.01969
0.991417
1.02013
0.995975
1.02076
0.997951
1.03147
1.00013
1.03025
0.999754
1.0233
0.994412
1.02311
0.984883
1.01625
0.989814
1.02047
0.987452
1.03227
0.980419
1.03675
0.979722
1.03016
0.958536
1.01481
0.957951
1.03955
0.826358
1.8991
1.0642
1.01484
1.05172
1.02147
1.06441
1.06122
1.06675
1.02224
1.06911
1.02799
1.06262
1.02097
1.05253
1.02165
1.04304
1.02187
1.03584
1.01361
1.03102
1.00508
1.03129
1.00362
1.02097
0.997066
1.03075
0.992207
1.02382
0.996029
1.02309
0.993449
1.02036
0.990759
1.0222
0.994053
1.02266
0.996697
1.03196
1.00299
1.02927
1.00002
1.02331
0.99318
1.02339
0.983952
1.01846
0.988517
1.02122
0.987854
1.03382
0.984103
1.03565
0.979739
1.02872
0.967054
1.01031
0.950852
1.0411
0.814438
1.89722
1.01531
1.03605
1.01166
1.06661
1.03949
1.05742
1.04603
1.06215
1.03336
1.05909
1.03334
1.05546
1.03165
1.04835
1.02424
1.0411
1.02098
1.02992
1.01587
1.0279
1.00068
1.0277
1.00455
1.0226
0.995407
1.02917
0.990576
1.02639
0.994323
1.02267
0.991968
1.01914
0.989958
1.0209
0.992436
1.02266
0.995292
1.03026
1.00505
1.02769
1.00085
1.02326
0.992547
1.02373
0.98276
1.01639
0.989059
1.02098
0.986769
1.03297
0.986563
1.0344
0.984194
1.02752
0.963983
1.01236
0.959065
1.05082
0.818172
1.8952
1.06047
1.01961
1.04856
1.02245
1.06188
1.06073
1.06549
1.02186
1.06765
1.03374
1.05822
1.02825
1.05228
1.02854
1.04907
1.02521
1.03865
1.02328
1.03621
1.01282
1.03365
1.00511
1.02705
1.0025
1.02098
0.993626
1.03531
0.988669
1.02871
0.993309
1.02421
0.991986
1.02079
0.988112
1.02365
0.991721
1.0211
0.995784
1.02948
1.0059
1.0257
1.00102
1.0241
0.990843
1.02399
0.981637
1.01795
0.987094
1.0224
0.985973
1.03456
0.989913
1.03303
0.982773
1.02651
0.970893
1.0096
0.948566
1.04837
0.821891
1.8931
1.02056
1.03009
1.01452
1.06646
1.04255
1.05582
1.04347
1.06408
1.02992
1.05451
1.04021
1.05318
1.03388
1.05073
1.03489
1.0462
1.02806
1.0365
1.02232
1.03215
1.01098
1.03044
1.00758
1.02576
1.00146
1.02705
0.990806
1.03078
0.988854
1.03003
0.992049
1.02263
0.991896
1.02001
0.989054
1.02306
0.990537
1.02534
0.99796
1.02825
1.00762
1.02423
1.00029
1.02311
0.989385
1.02499
0.980426
1.01532
0.987133
1.02128
0.987923
1.03255
0.988254
1.03152
0.988142
1.02534
0.96742
1.01031
0.957316
1.0454
0.824791
1.89116
1.0572
1.01853
1.04089
1.02866
1.06063
1.0581
1.06481
1.02603
1.06841
1.04041
1.06257
1.0363
1.05246
1.03095
1.04937
1.03189
1.04462
1.02632
1.03463
1.01692
1.0341
1.01085
1.03074
1.00857
1.02605
1.00046
1.02926
0.990725
1.03709
0.987274
1.03207
0.990561
1.02458
0.989677
1.02007
0.988445
1.02337
0.991271
1.02268
0.999059
1.02702
1.00727
1.02348
0.999542
1.02403
0.987918
1.02495
0.978741
1.0195
0.986352
1.02148
0.98891
1.03464
0.992303
1.02982
0.987479
1.02423
0.972418
1.00831
0.953613
1.0433
0.828134
1.88897
1.02125
1.0273
1.00464
1.07226
1.03608
1.0533
1.03897
1.0628
1.0351
1.05516
1.03732
1.04866
1.03081
1.04886
1.03868
1.04681
1.03685
1.04251
1.02877
1.03808
1.02206
1.03169
1.01495
1.02914
1.00825
1.02801
0.999999
1.03035
0.990736
1.03057
0.989171
1.03198
0.989915
1.02467
0.992869
1.02115
0.988149
1.0241
0.989327
1.02681
1.00074
1.02594
1.00571
1.02314
0.998569
1.02466
0.986068
1.02706
0.97718
1.01605
0.985156
1.02128
0.989835
1.03251
0.993125
1.02843
0.991198
1.02434
0.970564
1.00653
0.958176
1.04505
0.817185
1.88721
1.05264
1.00955
1.05022
1.03836
1.05641
1.05737
1.06214
1.02434
1.06679
1.04071
1.05631
1.03158
1.05153
1.03609
1.04704
1.03341
1.04445
1.0303
1.04056
1.02571
1.0344
1.01521
1.03292
1.01456
1.02844
1.00692
1.02892
0.999234
1.03001
0.992089
1.03836
0.98876
1.0337
0.989314
1.02601
0.988872
1.021
0.987724
1.02435
0.992319
1.02618
1.00017
1.02483
1.00485
1.02275
0.997464
1.02525
0.984534
1.0268
0.977427
1.02036
0.985028
1.02255
0.989775
1.03306
0.995045
1.02725
0.985848
1.02331
0.974905
1.00504
0.958451
1.05321
0.8204
1.88531
1.02088
1.02802
1.00089
1.05808
1.03033
1.05032
1.03334
1.06103
1.03294
1.05489
1.0387
1.04793
1.03869
1.04602
1.03209
1.04477
1.04082
1.04234
1.03701
1.03931
1.03342
1.03613
1.02187
1.03043
1.01709
1.029
1.00556
1.02783
0.999871
1.0293
0.991743
1.03093
0.991303
1.03176
0.990297
1.02636
0.989965
1.0217
0.988502
1.0233
0.989346
1.02857
0.999321
1.02447
1.00352
1.02287
0.996555
1.02671
0.983329
1.02791
0.976755
1.02151
0.983888
1.02496
0.988845
1.03306
0.994811
1.02614
0.994804
1.0227
0.972717
1.00224
0.955026
1.05098
0.82483
1.88333
1.04787
1.00195
1.05673
1.04388
1.05499
1.05648
1.06123
1.02857
1.06602
1.04439
1.05273
1.03437
1.04411
1.03395
1.04666
1.03589
1.04294
1.03475
1.04186
1.03234
1.0382
1.02455
1.03376
1.01755
1.03056
1.0145
1.02941
1.00623
1.02646
0.999702
1.02889
0.993095
1.03761
0.991098
1.03541
0.989976
1.02629
0.987623
1.0249
0.988442
1.02426
0.991444
1.02796
0.998239
1.02524
1.00262
1.02213
0.99559
1.02781
0.98272
1.02889
0.979035
1.02327
0.982852
1.02421
0.987101
1.0335
0.997334
1.02502
0.990659
1.02053
0.97758
1.00319
0.956119
1.04865
0.827476
1.88135
1.01938
1.0317
1.01406
1.05343
1.02445
1.0475
1.02933
1.05559
1.03516
1.0525
1.03534
1.04305
1.04227
1.04255
1.03602
1.04352
1.03364
1.04135
1.03873
1.03994
1.0361
1.03712
1.03039
1.03432
1.02278
1.02892
1.01668
1.02799
1.00634
1.02512
0.998158
1.03032
0.994834
1.03003
0.992517
1.03268
0.989172
1.02729
0.990429
1.024
0.989101
1.02418
0.99024
1.02868
0.99696
1.02673
1.00188
1.02125
0.99464
1.02661
0.983004
1.03074
0.978653
1.02482
0.981583
1.02695
0.989666
1.035
0.997073
1.02315
0.994185
1.02024
0.970963
1.00256
0.956957
1.04603
0.831891
1.87896
1.04378
0.996587
1.05178
1.03292
1.05156
1.05312
1.05584
1.02942
1.06269
1.04891
1.04875
1.03614
1.04432
1.03175
1.03986
1.02986
1.04257
1.03577
1.03964
1.03353
1.03861
1.03103
1.03612
1.0276
1.0323
1.01762
1.02855
1.01358
1.02748
1.00719
1.02572
0.997408
1.03035
0.995939
1.03568
0.993728
1.0351
0.988558
1.02743
0.989182
1.0255
0.986874
1.02417
0.990189
1.02912
0.9959
1.02757
1.00155
1.02038
0.994022
1.02658
0.98367
1.03314
0.980959
1.02428
0.981306
1.02553
0.98744
1.03386
1.00073
1.02134
0.989619
1.01948
0.974423
1.00262
0.957867
1.04319
0.834035
1.87666
1.01732
1.03834
1.01875
1.05633
1.02538
1.04546
1.02994
1.0541
1.03867
1.05306
1.03565
1.04203
1.03572
1.03764
1.0339
1.04252
1.03486
1.04064
1.03393
1.03922
1.0356
1.03798
1.03419
1.0352
1.02812
1.0327
1.0234
1.02759
1.01808
1.02665
1.00628
1.027
0.995218
1.03222
0.998706
1.03055
0.993684
1.03229
0.991832
1.02786
0.991043
1.02484
0.989564
1.02454
0.989401
1.03024
0.995394
1.02702
1.00137
1.02007
0.992752
1.02709
0.983226
1.03429
0.98073
1.02489
0.982501
1.0277
0.988525
1.03355
0.998104
1.02033
0.991625
1.01963
0.970871
1.00365
0.956576
1.04163
0.838015
1.87465
1.04107
0.993425
1.04143
1.0257
1.04821
1.04898
1.05507
1.03074
1.0607
1.05097
1.04886
1.03533
1.03968
1.03168
1.04502
1.03191
1.03873
1.03113
1.03957
1.03444
1.03784
1.03366
1.03616
1.0291
1.03408
1.02697
1.03082
1.01814
1.02716
1.01259
1.02579
1.00736
1.0275
0.996962
1.03203
0.996455
1.03461
0.99682
1.03249
0.989551
1.02813
0.992754
1.02691
0.988287
1.02489
0.98916
1.03256
0.99445
1.02575
1.00104
1.02023
0.991192
1.02836
0.983385
1.03606
0.983063
1.02606
0.981799
1.02612
0.989386
1.03355
1.00014
1.01932
0.987771
1.01684
0.972953
1.00477
0.960034
1.04306
0.827631
1.87293
1.01137
1.04261
1.01268
1.05424
1.02462
1.04594
1.02897
1.0499
1.04256
1.05622
1.03863
1.04407
1.03871
1.03994
1.02927
1.03584
1.02814
1.03919
1.03475
1.03791
1.034
1.03644
1.03345
1.03562
1.03091
1.03436
1.02725
1.03098
1.02557
1.0272
1.01757
1.0255
1.00592
1.02963
0.996917
1.03271
0.998349
1.03116
0.998794
1.03132
0.990442
1.02768
0.989811
1.02756
0.990795
1.0249
0.989414
1.03107
0.996003
1.02515
1.00046
1.02116
0.989448
1.03067
0.9813
1.03363
0.982396
1.02685
0.982
1.02853
0.989836
1.03407
0.996636
1.01872
0.991702
1.01894
0.970652
1.0037
0.955919
1.0516
0.831228
1.87072
1.04926
0.997123
1.04
1.03018
1.04549
1.04558
1.05269
1.0303
1.05712
1.05049
1.04911
1.0347
1.04202
1.03005
1.04199
1.02818
1.04544
1.02947
1.037
1.02915
1.03699
1.0322
1.03664
1.03177
1.03519
1.02919
1.03311
1.02588
1.03022
1.0188
1.02703
1.0139
1.025
1.00554
1.02989
0.998751
1.03185
0.999218
1.03481
0.99654
1.03247
0.994209
1.02889
0.991264
1.02902
0.98837
1.02584
0.991504
1.03284
0.995123
1.02414
0.999633
1.02207
0.987397
1.03347
0.984201
1.03402
0.984171
1.02722
0.981375
1.02881
0.98888
1.03166
0.998914
1.01687
0.98771
1.01766
0.970396
1.00521
0.953616
1.04925
0.835144
1.86831
1.00318
1.04137
1.00589
1.04758
1.01819
1.04766
1.02994
1.04869
1.04885
1.05612
1.04139
1.04439
1.03748
1.042
1.03185
1.03848
1.0263
1.03667
1.03118
1.039
1.03379
1.03552
1.03368
1.03552
1.0313
1.03662
1.02821
1.03383
1.02642
1.03023
1.02174
1.02762
1.01563
1.02522
1.00581
1.03124
0.998216
1.03373
1.0003
1.03101
0.999195
1.03102
0.988748
1.02818
0.990722
1.02836
0.990602
1.02529
0.993102
1.03094
0.994728
1.02415
0.998738
1.02226
0.985639
1.03452
0.985091
1.03415
0.983345
1.02664
0.978983
1.02812
0.989935
1.03028
0.997958
1.01502
0.988779
1.01823
0.969112
1.00582
0.953126
1.04651
0.838373
1.86639
1.0599
1.0025
1.04184
1.03267
1.04291
1.04431
1.04923
1.02896
1.05293
1.05149
1.05386
1.03483
1.04886
1.03184
1.04353
1.03074
1.04501
1.0239
1.03896
1.02708
1.03582
1.02854
1.03435
1.03043
1.03475
1.0305
1.03565
1.02735
1.03317
1.0246
1.0291
1.01923
1.02692
1.01279
1.0244
1.00438
1.03059
1.00057
1.03211
1.00086
1.03426
0.998941
1.03112
0.995434
1.0286
0.991399
1.02961
0.990464
1.02609
0.992656
1.03233
0.993214
1.02429
0.997783
1.02387
0.985837
1.03609
0.98883
1.03424
0.987654
1.02865
0.981287
1.03028
0.988929
1.02927
0.999412
1.01373
0.984447
1.01736
0.967484
1.00586
0.953564
1.04454
0.84184
1.86414
1.01106
1.03786
1.01138
1.04431
1.01571
1.05117
1.0325
1.05119
1.05218
1.05869
1.04133
1.04786
1.03998
1.04601
1.0354
1.04591
1.03112
1.03692
1.02797
1.03637
1.02933
1.03627
1.03301
1.03312
1.03162
1.03429
1.03019
1.0359
1.02706
1.03292
1.0254
1.02957
1.02003
1.02807
1.01429
1.02535
1.00388
1.03217
0.998225
1.03382
1.00124
1.03169
1.00172
1.0301
0.992305
1.02752
0.994711
1.03013
0.990061
1.02504
0.991248
1.03162
0.99358
1.02422
0.996831
1.0255
0.986817
1.0347
0.98907
1.03349
0.986977
1.02837
0.979277
1.02771
0.991498
1.02789
0.998459
1.01295
0.983952
1.0192
0.966098
1.0107
0.953712
1.04567
0.83222
1.86223
1.05881
1.00431
1.03531
1.02918
1.0389
1.04881
1.04678
1.03051
1.05086
1.0491
1.05619
1.03954
1.04634
1.03473
1.04731
1.03187
1.04419
1.0274
1.04231
1.02693
1.03887
1.02489
1.03492
1.02818
1.03253
1.02986
1.03405
1.02896
1.03463
1.02619
1.03254
1.02336
1.03021
1.02008
1.02656
1.01377
1.0254
1.00399
1.03209
1.00049
1.03169
1.00476
1.03337
0.998373
1.03058
0.99725
1.02715
0.993765
1.02866
0.992555
1.02449
0.99324
1.03267
0.994307
1.02513
0.995923
1.02601
0.989872
1.03436
0.991094
1.03168
0.98882
1.03034
0.982264
1.0301
0.992399
1.02682
0.998763
1.01234
0.983041
1.01931
0.964806
1.01368
0.950974
1.05367
0.83537
1.86011
1.01677
1.03538
1.01274
1.04407
1.01777
1.05445
1.02901
1.0531
1.05208
1.06204
1.04384
1.0499
1.04257
1.04968
1.03259
1.04607
1.03898
1.04382
1.03249
1.03895
1.02969
1.03427
1.03142
1.03399
1.02987
1.0315
1.0302
1.03393
1.02844
1.03487
1.0262
1.03263
1.02366
1.0301
1.02048
1.02683
1.01407
1.02552
1.00256
1.03403
1.00032
1.0326
1.00455
1.03132
1.0018
1.02968
0.996678
1.02706
0.998293
1.02753
0.989589
1.0272
0.993226
1.03203
0.993476
1.02639
0.995056
1.02596
0.992383
1.03424
0.99096
1.03425
0.986679
1.02874
0.981266
1.02913
0.993322
1.02642
0.996155
1.01085
0.982248
1.02003
0.963832
1.01369
0.948841
1.05118
0.840291
1.85814
1.0581
1.00872
1.03051
1.02483
1.03507
1.04956
1.04484
1.03678
1.05074
1.04859
1.05899
1.04361
1.05084
1.03726
1.05075
1.03213
1.0454
1.03134
1.04301
1.02906
1.03825
1.02755
1.038
1.02531
1.03336
1.02783
1.03156
1.02945
1.03311
1.02752
1.03338
1.02494
1.03144
1.02205
1.02906
1.01941
1.02543
1.01358
1.0277
1.00179
1.03234
1.00404
1.03081
1.00685
1.03226
1.0003
1.02922
0.998402
1.02731
0.998253
1.02815
0.990423
1.02501
0.992602
1.03329
0.994833
1.02555
0.99413
1.02925
0.993155
1.03345
0.993701
1.03333
0.988775
1.0267
0.980409
1.03357
0.99209
1.0257
0.997561
1.00962
0.980623
1.02266
0.962821
1.01721
0.948885
1.04876
0.84299
1.85586
1.02562
1.03579
1.01355
1.04411
1.02265
1.05878
1.03036
1.0579
1.04909
1.06138
1.04349
1.05548
1.0437
1.05203
1.03511
1.05079
1.0368
1.04488
1.03988
1.0427
1.03342
1.03757
1.03046
1.03438
1.02903
1.03184
1.02804
1.03142
1.0285
1.03335
1.02698
1.03399
1.02516
1.03121
1.02308
1.02879
1.01886
1.02672
1.01321
1.02749
1.00254
1.03249
1.00432
1.03049
1.00546
1.03018
1.00398
1.02866
1.00234
1.02546
0.999527
1.02796
0.990715
1.02671
0.993883
1.03152
0.996379
1.02558
0.993026
1.03084
0.993759
1.03341
0.995551
1.03264
0.988026
1.02834
0.980432
1.02918
0.991659
1.02439
0.994402
1.00881
0.978639
1.02393
0.962091
1.01929
0.950908
1.04638
0.847672
1.85333
1.05473
1.01127
1.02278
1.01871
1.03605
1.05242
1.04235
1.03985
1.05014
1.0476
1.06262
1.0419
1.05853
1.04253
1.05495
1.03623
1.04987
1.03501
1.04262
1.03277
1.04067
1.02871
1.03859
1.02807
1.03618
1.02578
1.03203
1.02721
1.03198
1.02785
1.03427
1.02634
1.03255
1.02418
1.03033
1.02188
1.02972
1.01834
1.02593
1.01282
1.02813
1.004
1.03139
1.00573
1.02946
1.00647
1.02928
1.0027
1.02813
1.00311
1.02629
0.998901
1.02681
0.990798
1.02658
0.993389
1.03208
0.993704
1.02644
0.991506
1.03373
0.994757
1.03264
0.99685
1.03216
0.989078
1.02867
0.978774
1.03384
0.993091
1.02317
0.994824
1.00811
0.975791
1.02876
0.960961
1.01847
0.953607
1.04422
0.850014
1.85106
1.02833
1.03439
1.01464
1.04993
1.02828
1.05809
1.02664
1.06031
1.04556
1.06324
1.04388
1.05748
1.04575
1.05079
1.03836
1.05287
1.04079
1.05008
1.03854
1.04282
1.03664
1.041
1.03281
1.03752
1.02827
1.0346
1.02734
1.03178
1.0262
1.03328
1.02759
1.03352
1.026
1.03297
1.02482
1.03
1.02225
1.02944
1.01809
1.0272
1.01348
1.02856
1.00506
1.03087
1.00626
1.02942
1.0085
1.02879
1.00692
1.02695
1.00308
1.02604
0.998294
1.02681
0.994306
1.02985
0.996663
1.03036
0.994618
1.02659
0.990704
1.03557
0.99501
1.03205
0.996293
1.03064
0.988944
1.02806
0.980248
1.03087
0.992464
1.02198
0.99395
1.01062
0.973598
1.03162
0.959898
1.02041
0.952765
1.04218
0.854723
1.84823
1.05179
1.01403
1.02312
1.01776
1.03872
1.05347
1.03914
1.04437
1.05303
1.04665
1.06069
1.04583
1.06381
1.03594
1.05732
1.04228
1.04862
1.03725
1.0487
1.03521
1.04371
1.0348
1.04013
1.02998
1.03668
1.02554
1.03407
1.02623
1.03308
1.02491
1.03436
1.02647
1.03424
1.02589
1.03217
1.02399
1.02911
1.0209
1.03049
1.01719
1.02777
1.01185
1.02834
1.00495
1.03004
1.00895
1.02826
1.00936
1.02789
1.00421
1.02702
1.00119
1.02596
0.999582
1.02707
0.989952
1.02817
0.996693
1.03056
0.999258
1.02574
0.991107
1.03541
0.998068
1.03132
0.996733
1.02919
0.986124
1.03065
0.980508
1.03214
0.99007
1.02112
0.992873
1.01144
0.972822
1.03358
0.958864
1.02059
0.95685
1.0401
0.856544
1.84544
1.03092
1.03337
1.0043
1.0535
1.02795
1.05861
1.02517
1.06462
1.04231
1.06274
1.04448
1.0584
1.04621
1.0566
1.0473
1.05061
1.04371
1.0527
1.04264
1.04795
1.03733
1.04465
1.03505
1.04
1.03266
1.03714
1.02813
1.0341
1.02592
1.03348
1.02398
1.03509
1.02631
1.0345
1.02622
1.03166
1.02537
1.02865
1.02121
1.03056
1.01717
1.02739
1.01332
1.02835
1.00786
1.02935
1.00688
1.02813
1.00971
1.0279
1.01007
1.02606
1.0045
1.02601
0.999602
1.02523
0.992208
1.03185
0.997786
1.02975
0.998768
1.02744
0.991728
1.03672
1.00016
1.0309
0.998213
1.02992
0.987832
1.03035
0.980446
1.0331
0.990144
1.02104
0.991662
1.01359
0.97274
1.03657
0.960049
1.01813
0.95718