/*--------------------------------*- C++ -*----------------------------------*\
| =========                 |                                                 |
| \\      /  F ield         | OpenFOAM: The Open Source CFD Toolbox           |
|  \\    /   O peration     | Version:  2206                                  |
|   \\  /    A nd           | Website:  www.openfoam.com                      |
|    \\/     M anipulation  |                                                 |
\*---------------------------------------------------------------------------*/
FoamFile
{
    version     2.0;
    format      ascii;
    arch        "LSB;label=32;scalar=64";
    class       volScalarField;
    location    "190";
    object      rhoMean;
}
// * * * * * * * * * * * * * * * * * * * * * * * * * * * * * * * * * * * * * //

dimensions      [1 -3 0 0 0 0 0];

internalField   nonuniform List<scalar> 
93840
(
2.20822
0.591569
2.13153
1.33562
0.635735
1.92705
0.72132
1.14483
0.700097
1.71166
1.16838
0.949537
1.14398
0.807205
1.58061
0.986002
1.10192
0.927183
1.1943
0.853413
1.48204
1.07655
0.960248
1.11446
0.857952
1.11967
0.867616
1.46866
0.970347
1.08856
0.954804
1.11016
0.890999
1.12666
0.902256
1.4491
1.07544
0.955097
1.09797
0.982921
1.09007
0.930106
1.08197
0.902796
1.45611
0.9739
1.0839
0.957041
1.06595
0.963976
1.07252
0.959508
1.06148
0.902446
1.43204
1.07429
0.972848
1.09343
0.984894
1.07289
0.980246
1.04659
0.984134
1.06038
0.908436
1.45155
0.975752
1.07739
0.967822
1.06738
0.975943
1.05418
0.971823
1.04699
0.98275
1.04724
0.908093
1.43445
1.06893
0.97156
1.08403
0.99651
1.06826
0.994173
1.05414
0.995231
1.03245
0.989971
1.04961
0.910526
1.4468
0.975678
1.07088
0.970976
1.06032
0.988557
1.05149
0.987921
1.04887
0.990645
1.04054
0.98483
1.04673
0.909988
1.42818
1.0695
0.971201
1.07463
0.994154
1.05752
0.996739
1.05078
0.999334
1.04425
1.00106
1.0293
0.988395
1.04767
0.912768
1.44315
0.9784
1.06941
0.972451
1.04959
0.986955
1.04208
0.989012
1.04304
0.998917
1.04532
0.991336
1.03812
0.987127
1.04425
0.91195
1.4226
1.07025
0.974363
1.06961
0.993418
1.04935
0.995711
1.04526
0.997923
1.04455
1.0027
1.04126
1.00103
1.02885
0.987952
1.04712
0.915459
1.43813
0.981068
1.06885
0.977857
1.04687
0.990294
1.03801
0.991327
1.03656
0.994018
1.03909
1.00019
1.04278
0.993701
1.03617
0.9886
1.04263
0.914241
1.41719
1.07077
0.977999
1.06744
0.997196
1.04819
1.00007
1.0446
0.998304
1.04103
0.999867
1.04112
1.00437
1.03787
1.00181
1.02913
0.988858
1.04589
0.917973
1.43336
0.98271
1.06968
0.983594
1.0462
0.995027
1.03667
0.995865
1.0357
0.994172
1.03404
0.995587
1.03734
1.00129
1.04154
0.99465
1.03407
0.990127
1.04148
0.916503
1.41265
1.07102
0.982221
1.06618
1.0003
1.04582
1.0022
1.04294
1.00203
1.04249
0.999184
1.03891
1.00165
1.03863
1.00656
1.03557
1.00264
1.02874
0.989428
1.04453
0.920547
1.42829
0.984835
1.06953
0.988199
1.04616
0.99984
1.03639
1.00064
1.03598
0.998016
1.03443
0.996166
1.03226
0.996973
1.03478
1.00178
1.041
0.997096
1.03224
0.99175
1.04019
0.918899
1.40892
1.07175
0.987013
1.06565
1.00391
1.04587
1.00586
1.04321
1.00527
1.04201
1.00151
1.04089
1.00153
1.03707
1.00248
1.03626
1.00665
1.03396
1.0031
1.02939
0.990506
1.04322
0.923385
1.4227
0.987769
1.06997
0.993901
1.04711
1.00438
1.03691
1.00529
1.03717
1.00304
1.03544
0.99919
1.03117
0.999629
1.03035
0.998819
1.03425
1.00408
1.03957
0.99875
1.03053
0.992879
1.03889
0.921397
1.40577
1.07183
0.991318
1.06587
1.00885
1.04678
1.00958
1.04388
1.00959
1.04264
1.00486
1.03782
1.00551
1.03804
1.00256
1.0347
1.00268
1.03287
1.00742
1.03341
1.00397
1.02885
0.991673
1.0423
0.924425
1.40496
0.988783
1.06837
0.997633
1.0469
1.00855
1.03789
1.00949
1.03812
1.00789
1.03631
1.00518
1.03237
1.00291
1.03082
1.00121
1.03006
1.00045
1.03366
1.00601
1.03775
1.00059
1.02967
0.993461
1.03771
0.920211
1.39708
1.06958
0.992233
1.06222
1.01072
1.04523
1.01098
1.04239
1.01201
1.04299
1.00948
1.0408
1.00906
1.0372
1.00563
1.03496
1.00491
1.03306
1.00462
1.03101
1.00707
1.03325
1.00441
1.02897
0.992086
1.04069
0.931965
1.4021
0.988849
1.06434
0.998619
1.04391
1.00945
1.03531
1.00944
1.03614
1.01105
1.03795
1.00931
1.03522
1.0069
1.03208
1.00363
1.02981
1.00251
1.02924
1.00154
1.03243
1.0075
1.03656
1.00171
1.0293
0.994011
1.03486
0.928733
1.39849
1.06644
0.992913
1.05844
1.01097
1.04231
1.01037
1.03911
1.01228
1.04099
1.01143
1.04112
1.01205
1.04019
1.00929
1.03538
1.00815
1.03436
1.00532
1.0323
1.00538
1.03023
1.00759
1.03347
1.00361
1.02908
0.992227
1.03869
0.931227
1.40122
0.989027
1.0602
0.99977
1.04034
1.0091
1.03215
1.00899
1.03335
1.01071
1.03552
1.0117
1.0365
1.01083
1.03453
1.00755
1.03099
1.00447
1.02956
1.00345
1.02912
1.00218
1.03158
1.00749
1.03688
1.00199
1.02927
0.994703
1.03607
0.929059
1.39574
1.06368
0.993145
1.05456
1.0107
1.03907
1.00923
1.03574
1.01096
1.03711
1.01157
1.04019
1.01311
1.03973
1.01204
1.03937
1.01034
1.03546
1.00793
1.03348
1.00503
1.03133
1.00537
1.02958
1.00716
1.03345
1.00312
1.029
0.992463
1.03913
0.930849
1.39761
0.989823
1.05518
0.999645
1.03631
1.00867
1.0287
1.008
1.02962
1.00961
1.0331
1.01101
1.03487
1.01226
1.03632
1.01176
1.03386
1.00833
1.03076
1.0054
1.02943
1.00399
1.02865
1.00304
1.03145
1.00686
1.03622
1.0032
1.0288
0.994792
1.03718
0.929811
1.39189
1.06195
0.994321
1.05015
1.00871
1.03548
1.00736
1.03162
1.00848
1.03343
1.01059
1.03668
1.01133
1.03888
1.01339
1.03887
1.01227
1.03801
1.01115
1.03457
1.00823
1.03304
1.00618
1.03089
1.00525
1.02937
1.00773
1.03313
1.00298
1.02877
0.991845
1.03919
0.933227
1.39313
0.991252
1.0513
1.00167
1.03421
1.00862
1.02573
1.00698
1.02617
1.00828
1.02962
1.00923
1.03257
1.01135
1.03429
1.01288
1.03559
1.01334
1.03351
1.00894
1.03071
1.00612
1.02925
1.00457
1.02823
1.0031
1.03114
1.007
1.03621
1.00392
1.02891
0.994447
1.03677
0.932122
1.38781
1.05942
0.99555
1.04733
1.00875
1.03312
1.00665
1.0287
1.00718
1.0297
1.00782
1.03284
1.01061
1.03553
1.01231
1.0369
1.01383
1.03805
1.01328
1.03651
1.01218
1.03367
1.00857
1.03202
1.00646
1.03021
1.00575
1.0291
1.00765
1.03299
1.0033
1.02913
0.992529
1.03941
0.928616
1.38911
0.992488
1.04862
1.00374
1.03168
1.00814
1.02325
1.00611
1.02338
1.00689
1.02656
1.00789
1.02946
1.00992
1.03182
1.01303
1.03387
1.01427
1.03454
1.01411
1.03326
1.01
1.03066
1.00676
1.0295
1.00525
1.02789
1.00352
1.03038
1.00704
1.03569
1.00428
1.02928
0.993765
1.04355
0.927916
1.38373
1.0576
0.997361
1.04566
1.00941
1.03125
1.00677
1.02736
1.00763
1.02759
1.00666
1.02937
1.00818
1.03187
1.01103
1.03462
1.01244
1.0365
1.01427
1.03747
1.01426
1.03569
1.01204
1.03296
1.00855
1.03148
1.00704
1.02956
1.00564
1.02895
1.00796
1.03296
1.00367
1.0295
0.989019
1.04364
0.932773
1.38486
0.994727
1.04724
1.00586
1.02961
1.00867
1.02265
1.00733
1.02416
1.00783
1.02454
1.00715
1.02577
1.00865
1.02893
1.01066
1.03096
1.01384
1.03296
1.01547
1.03407
1.01467
1.0333
1.01082
1.03092
1.00762
1.02951
1.00619
1.02801
1.00452
1.03004
1.00729
1.03527
1.00449
1.0292
0.993034
1.04035
0.931789
1.37971
1.05767
1.00104
1.04567
1.01122
1.03147
1.00929
1.02953
1.01139
1.02865
1.00786
1.0272
1.0075
1.02849
1.00844
1.03063
1.01161
1.03348
1.01312
1.03548
1.01419
1.03737
1.01461
1.03591
1.01217
1.03267
1.00869
1.03096
1.00721
1.02929
1.0059
1.02838
1.00787
1.03308
1.00365
1.02989
0.9908
1.04079
0.936196
1.38085
0.998856
1.04772
1.00902
1.03041
1.01222
1.02509
1.01146
1.02728
1.0109
1.02582
1.00925
1.0245
1.00816
1.02586
1.0093
1.0281
1.01159
1.03122
1.0147
1.03278
1.01526
1.03377
1.0149
1.03307
1.01155
1.03103
1.00816
1.02947
1.00656
1.02766
1.00483
1.03018
1.00714
1.03543
1.00453
1.02951
0.994479
1.03999
0.927709
1.37597
1.05882
1.00613
1.04701
1.01497
1.03463
1.01425
1.0335
1.01586
1.03188
1.01249
1.02913
1.00857
1.02708
1.00742
1.02776
1.00916
1.03015
1.01182
1.03253
1.01334
1.03492
1.01516
1.0366
1.01503
1.03528
1.01258
1.03245
1.00893
1.03096
1.00744
1.02943
1.00578
1.02837
1.00744
1.03347
1.00365
1.03046
0.991251
1.04654
0.932311
1.3771
1.00287
1.04954
1.01354
1.03356
1.01699
1.02845
1.01537
1.02947
1.01439
1.02856
1.01215
1.02608
1.01063
1.02431
1.00868
1.02504
1.01003
1.02784
1.01203
1.03107
1.01513
1.03242
1.01551
1.03385
1.01517
1.03309
1.01207
1.03098
1.00852
1.02951
1.00677
1.02788
1.00488
1.03022
1.00711
1.0354
1.0045
1.02964
0.991411
1.04361
0.932075
1.37184
1.05902
1.01018
1.0486
1.01975
1.03822
1.01802
1.03499
1.0171
1.03302
1.01679
1.03235
1.01302
1.02923
1.00799
1.02624
1.00822
1.02753
1.00939
1.02974
1.01191
1.03197
1.01365
1.0344
1.01554
1.03604
1.0154
1.03498
1.01266
1.03226
1.00918
1.03065
1.00752
1.0291
1.00588
1.02837
1.00711
1.03378
1.00358
1.03091
0.98996
1.04304
0.936742
1.37355
1.00615
1.05029
1.01699
1.03592
1.0202
1.02983
1.01614
1.0283
1.01598
1.02914
1.01493
1.02897
1.01351
1.02626
1.01096
1.02437
1.00956
1.02501
1.01058
1.02751
1.01265
1.03065
1.01557
1.03228
1.01552
1.03376
1.01561
1.03316
1.01248
1.03089
1.00881
1.02955
1.00704
1.02769
1.00489
1.03008
1.00696
1.03533
1.00459
1.0298
0.993668
1.0402
0.935954
1.3686
1.05855
1.01374
1.05003
1.02351
1.03946
1.01883
1.03381
1.01665
1.03317
1.01716
1.03279
1.01672
1.03213
1.01299
1.02963
1.00996
1.02561
1.0086
1.02641
1.00984
1.02882
1.01202
1.03134
1.01356
1.03376
1.01566
1.03548
1.01527
1.035
1.01285
1.03214
1.00929
1.03049
1.00783
1.02898
1.00598
1.02855
1.00683
1.03405
1.00335
1.03142
0.991564
1.03987
0.939577
1.37045
1.00785
1.05017
1.0191
1.03684
1.02072
1.02847
1.01467
1.02628
1.01512
1.02723
1.01555
1.02937
1.01564
1.02927
1.01454
1.0263
1.01146
1.02464
1.01029
1.02455
1.01094
1.02713
1.01285
1.03045
1.01583
1.0321
1.01561
1.03387
1.01572
1.03326
1.01282
1.0308
1.00935
1.02941
1.00724
1.02766
1.00503
1.03004
1.00682
1.03532
1.00454
1.03018
0.994763
1.03988
0.932139
1.36532
1.05654
1.01517
1.04923
1.02383
1.03767
1.01763
1.03162
1.0155
1.03139
1.01544
1.03231
1.01732
1.03246
1.01665
1.03181
1.01343
1.02856
1.0108
1.02533
1.00929
1.02643
1.01017
1.02872
1.01224
1.03093
1.01379
1.03287
1.01634
1.03536
1.01503
1.03508
1.01275
1.03194
1.00936
1.03037
1.00796
1.0286
1.00585
1.02857
1.00666
1.03448
1.00335
1.03194
0.992022
1.0449
0.935717
1.36689
1.00853
1.04749
1.0186
1.03531
1.01889
1.02583
1.01288
1.02444
1.0135
1.02462
1.01548
1.02723
1.01617
1.02933
1.01659
1.02925
1.01533
1.02677
1.01183
1.02473
1.01032
1.02435
1.01121
1.02695
1.01306
1.02994
1.01594
1.03139
1.01592
1.0337
1.01551
1.03337
1.01319
1.03092
1.0096
1.02947
1.00754
1.02743
1.00526
1.02994
1.00658
1.03547
1.00421
1.03029
0.99189
1.04288
0.935528
1.36156
1.05367
1.01547
1.04636
1.02277
1.03533
1.01634
1.02957
1.01467
1.02893
1.01403
1.02995
1.01471
1.03102
1.01661
1.03146
1.01684
1.03178
1.01395
1.02928
1.01138
1.02515
1.00944
1.02596
1.01039
1.02809
1.01262
1.03061
1.01426
1.03223
1.01664
1.03514
1.01564
1.03485
1.01298
1.03195
1.00954
1.03034
1.00822
1.02875
1.00581
1.02864
1.00648
1.03454
1.00352
1.0321
0.990917
1.042
0.938639
1.36323
1.00915
1.04455
1.01802
1.03249
1.01689
1.02388
1.01178
1.02342
1.01244
1.02318
1.01386
1.0246
1.0155
1.02758
1.0168
1.02948
1.01729
1.02912
1.01576
1.02661
1.01227
1.02492
1.01039
1.02414
1.01116
1.02647
1.01311
1.02981
1.0161
1.03122
1.01614
1.03337
1.01609
1.03332
1.01336
1.03095
1.00969
1.02948
1.00771
1.02755
1.00536
1.02975
1.00654
1.03497
1.00494
1.03043
0.993557
1.04047
0.938163
1.35806
1.05147
1.0156
1.04402
1.02169
1.03356
1.01561
1.02813
1.01439
1.02762
1.01381
1.0283
1.0133
1.02936
1.01499
1.03032
1.01627
1.03134
1.01689
1.03101
1.01479
1.0289
1.01206
1.02504
1.01016
1.0258
1.01047
1.02813
1.01292
1.03026
1.01454
1.03205
1.01679
1.03431
1.01609
1.03465
1.01326
1.03181
1.00974
1.0302
1.00813
1.02871
1.00599
1.02855
1.00653
1.03423
1.00386
1.03225
0.992026
1.0415
0.935259
1.35996
1.0097
1.0424
1.01802
1.03056
1.01617
1.02301
1.01158
1.02353
1.01319
1.02304
1.01296
1.02327
1.0141
1.02439
1.01553
1.0277
1.01688
1.02969
1.01777
1.02934
1.01619
1.02644
1.01271
1.02459
1.01039
1.0242
1.01161
1.02623
1.01324
1.02938
1.01609
1.03103
1.01644
1.03321
1.01617
1.03306
1.01371
1.03071
1.00989
1.02935
1.00787
1.02733
1.00563
1.02951
1.00683
1.03469
1.00519
1.03048
0.994129
1.04475
0.935389
1.3548
1.04906
1.01568
1.04315
1.02111
1.03294
1.01577
1.02781
1.0154
1.02822
1.01469
1.02707
1.01347
1.027
1.01357
1.02814
1.01505
1.03021
1.01704
1.03092
1.01719
1.03121
1.01561
1.02856
1.01237
1.02518
1.01032
1.02543
1.0106
1.02776
1.01305
1.02995
1.01474
1.03194
1.01691
1.03417
1.01645
1.03439
1.01349
1.0318
1.0098
1.03015
1.00835
1.0283
1.0061
1.02822
1.00705
1.03401
1.0039
1.03232
0.989783
1.0434
0.938953
1.35666
1.01081
1.04008
1.01729
1.02905
1.01655
1.02302
1.01238
1.02451
1.01484
1.0238
1.01402
1.02344
1.01355
1.02302
1.01471
1.02502
1.01584
1.02785
1.01716
1.02957
1.0182
1.02918
1.01672
1.02638
1.01325
1.02456
1.01092
1.02391
1.01179
1.02601
1.01342
1.02911
1.01606
1.03097
1.01659
1.03321
1.01639
1.03296
1.01387
1.03077
1.00994
1.02925
1.00824
1.02757
1.00574
1.02867
1.00739
1.0347
1.00533
1.03062
0.993293
1.04196
0.938637
1.35134
1.04766
1.0168
1.04325
1.02109
1.03354
1.01674
1.02856
1.01714
1.02943
1.01627
1.02777
1.01483
1.02565
1.0139
1.02662
1.014
1.02792
1.0151
1.02956
1.01724
1.03067
1.01793
1.0309
1.0162
1.02836
1.01286
1.02501
1.01061
1.02542
1.01074
1.02741
1.0132
1.02965
1.01484
1.03182
1.01684
1.03387
1.01659
1.03433
1.01363
1.03167
1.01006
1.02994
1.00844
1.02824
1.00653
1.02757
1.00705
1.03405
1.00401
1.03245
0.992027
1.04095
0.941118
1.3532
1.01193
1.0395
1.01824
1.03017
1.01778
1.02371
1.01395
1.02568
1.01654
1.02495
1.01588
1.0236
1.01492
1.0237
1.01444
1.02305
1.0147
1.02507
1.0162
1.0272
1.01759
1.02915
1.01867
1.02918
1.01712
1.02653
1.01312
1.02442
1.01123
1.02371
1.01195
1.02564
1.01346
1.02897
1.01585
1.03084
1.01677
1.03288
1.01643
1.03292
1.01404
1.0307
1.01013
1.02917
1.00838
1.02749
1.00619
1.02865
1.00734
1.03449
1.00544
1.03077
0.994847
1.04006
0.940817
1.34781
1.0467
1.01766
1.04218
1.02148
1.03407
1.0179
1.02965
1.01853
1.03017
1.01754
1.02854
1.01654
1.02741
1.0151
1.02567
1.01419
1.02557
1.01435
1.02713
1.01556
1.02933
1.01787
1.03033
1.01816
1.03022
1.01657
1.02818
1.01362
1.02489
1.01078
1.0252
1.01091
1.02716
1.01334
1.02936
1.01505
1.03163
1.01691
1.03409
1.01668
1.03414
1.01376
1.03158
1.01021
1.02987
1.00855
1.02803
1.00651
1.02751
1.00706
1.03393
1.00407
1.0325
0.993087
1.03882
0.943509
1.34972
1.01375
1.03934
1.01972
1.0302
1.01893
1.02468
1.01571
1.02626
1.01731
1.02538
1.01732
1.02546
1.01627
1.02405
1.01531
1.02338
1.01503
1.02333
1.01478
1.02495
1.01641
1.02674
1.0182
1.0292
1.01912
1.02929
1.01771
1.02672
1.01357
1.02448
1.01125
1.0237
1.01192
1.0256
1.01356
1.0288
1.01589
1.03054
1.01685
1.03262
1.01671
1.03281
1.01421
1.03063
1.01031
1.02909
1.00863
1.02757
1.0064
1.02841
1.00722
1.03415
1.00551
1.03081
0.995167
1.03822
0.943085
1.34458
1.04657
1.01914
1.04281
1.02265
1.03493
1.01929
1.03065
1.01901
1.02992
1.01791
1.02909
1.01787
1.02806
1.01713
1.0268
1.01546
1.02537
1.01455
1.02537
1.01467
1.02674
1.01614
1.02896
1.01769
1.02998
1.01865
1.02995
1.01683
1.02808
1.01382
1.02483
1.01113
1.02506
1.0112
1.02693
1.01341
1.02904
1.01509
1.03143
1.01688
1.03403
1.01667
1.03403
1.01404
1.03156
1.0103
1.02963
1.00861
1.02793
1.00646
1.02741
1.00716
1.03395
1.00419
1.03258
0.993519
1.0382
0.94173
1.34658
1.01559
1.03972
1.02089
1.03102
1.02072
1.02579
1.01698
1.02573
1.01721
1.02533
1.01782
1.02526
1.01775
1.02522
1.01714
1.02414
1.01617
1.02351
1.01512
1.02344
1.01532
1.02503
1.01662
1.02698
1.01844
1.02935
1.01931
1.02953
1.01797
1.0268
1.01384
1.02429
1.01151
1.02349
1.01198
1.02546
1.01363
1.02862
1.01603
1.03055
1.01689
1.03261
1.0167
1.03279
1.01426
1.03056
1.01051
1.02905
1.00874
1.02755
1.00659
1.0282
1.00713
1.034
1.00553
1.03104
0.995539
1.0411
0.941161
1.34136
1.04609
1.01995
1.0429
1.02384
1.03566
1.0204
1.031
1.01851
1.02912
1.01788
1.0284
1.01829
1.02853
1.01817
1.02742
1.01743
1.02603
1.01569
1.02495
1.01512
1.02523
1.01487
1.02612
1.01646
1.02855
1.01828
1.02967
1.01907
1.0298
1.01706
1.02764
1.01413
1.02496
1.01121
1.0249
1.01135
1.02671
1.01342
1.02867
1.01517
1.03121
1.01687
1.03383
1.01684
1.03391
1.01417
1.03152
1.01033
1.02958
1.00867
1.02778
1.00646
1.02727
1.0072
1.03377
1.00435
1.03249
0.992044
1.04021
0.943613
1.3433
1.0174
1.04041
1.02251
1.03197
1.02172
1.02612
1.01728
1.02436
1.01675
1.02425
1.0174
1.02512
1.01819
1.02507
1.0182
1.0255
1.01753
1.02458
1.01671
1.02358
1.01534
1.02327
1.01561
1.02493
1.01671
1.02698
1.01848
1.02927
1.01935
1.02944
1.01831
1.02721
1.01413
1.02417
1.01167
1.02352
1.01197
1.02535
1.01379
1.02838
1.01602
1.03036
1.0169
1.03246
1.01672
1.03276
1.01438
1.03053
1.01061
1.02891
1.00883
1.0275
1.00666
1.02803
1.00695
1.03397
1.00558
1.03106
0.994849
1.03964
0.94309
1.33819
1.04643
1.02182
1.04364
1.02523
1.03597
1.02105
1.03057
1.01752
1.02824
1.01736
1.02719
1.01813
1.02706
1.01902
1.0279
1.01876
1.02675
1.01772
1.02591
1.01637
1.0248
1.01543
1.02481
1.01519
1.02574
1.01676
1.02836
1.01853
1.0296
1.01931
1.03002
1.01735
1.0274
1.01438
1.02499
1.01139
1.02471
1.01148
1.02645
1.01347
1.02844
1.01531
1.03113
1.01687
1.03368
1.01698
1.03372
1.01427
1.03148
1.01033
1.02947
1.00872
1.02761
1.00657
1.02719
1.00714
1.03363
1.00464
1.0322
0.992726
1.03828
0.946012
1.33995
1.01884
1.04092
1.02369
1.03219
1.02216
1.02601
1.01695
1.02288
1.0163
1.02255
1.01645
1.02344
1.01793
1.02414
1.01834
1.02498
1.01856
1.02561
1.0178
1.02452
1.01678
1.02348
1.01566
1.02305
1.01598
1.02496
1.01678
1.02697
1.01867
1.02912
1.01962
1.02933
1.01847
1.02732
1.01439
1.02415
1.01183
1.02345
1.01191
1.02523
1.01384
1.02818
1.01582
1.03026
1.01684
1.03242
1.01685
1.03269
1.01444
1.03048
1.01063
1.0287
1.00899
1.02737
1.00668
1.0278
1.00689
1.0339
1.0059
1.0309
0.995571
1.03875
0.941344
1.33502
1.04607
1.02292
1.04342
1.02613
1.03592
1.02114
1.02949
1.01646
1.02732
1.01639
1.02595
1.01757
1.02608
1.01823
1.02655
1.01946
1.02777
1.01882
1.02707
1.01806
1.02591
1.01663
1.02472
1.01558
1.02457
1.01549
1.02542
1.01706
1.02812
1.01878
1.02947
1.0195
1.02978
1.01771
1.02744
1.01456
1.02503
1.01152
1.02445
1.01175
1.0263
1.01351
1.02825
1.01557
1.031
1.01696
1.03348
1.01698
1.03371
1.01447
1.03146
1.01056
1.0295
1.0088
1.02742
1.00666
1.02702
1.00711
1.03337
1.005
1.03214
0.993489
1.04106
0.943685
1.33683
1.01998
1.04109
1.0253
1.03239
1.02237
1.02542
1.01612
1.02157
1.01599
1.02097
1.01568
1.02234
1.01658
1.02322
1.01824
1.02428
1.01864
1.02468
1.01904
1.02552
1.01814
1.02463
1.01697
1.02343
1.01591
1.02298
1.01613
1.02492
1.01695
1.02688
1.01889
1.02902
1.01983
1.02955
1.01862
1.0273
1.01454
1.02406
1.01198
1.02335
1.01198
1.02508
1.0138
1.02798
1.01583
1.03018
1.01683
1.03237
1.01684
1.03254
1.01453
1.03041
1.0108
1.02854
1.00914
1.02723
1.00674
1.02757
1.00679
1.03363
1.00621
1.03091
0.994132
1.04051
0.943566
1.33202
1.04572
1.02396
1.04294
1.0267
1.03532
1.02067
1.02818
1.01584
1.02667
1.01561
1.02514
1.01672
1.02485
1.01751
1.0256
1.01866
1.02631
1.01943
1.02702
1.01929
1.02658
1.01856
1.02588
1.01696
1.02466
1.01612
1.02446
1.0157
1.02536
1.01709
1.02793
1.01892
1.02938
1.01971
1.02966
1.01799
1.02748
1.01479
1.02487
1.01164
1.0243
1.01183
1.02603
1.01364
1.02812
1.01555
1.03083
1.01692
1.03326
1.01727
1.03347
1.0147
1.03135
1.01064
1.02931
1.00893
1.02723
1.0068
1.02686
1.00711
1.03302
1.00526
1.0319
0.99287
1.03915
0.945746
1.33375
1.02083
1.04104
1.02594
1.03199
1.02195
1.02454
1.01539
1.02093
1.01604
1.02021
1.01572
1.02093
1.01555
1.02155
1.01711
1.02342
1.01824
1.02426
1.01937
1.02455
1.01922
1.02509
1.01839
1.02457
1.0173
1.02332
1.01606
1.02314
1.01622
1.02481
1.01718
1.02685
1.01907
1.02894
1.01994
1.02935
1.01885
1.02735
1.01474
1.02414
1.01213
1.0233
1.01205
1.0249
1.01387
1.02781
1.01581
1.0301
1.0167
1.03231
1.01696
1.03235
1.01471
1.03036
1.01099
1.02838
1.00931
1.02709
1.0067
1.02745
1.00685
1.03332
1.00666
1.03077
0.995298
1.03852
0.945787
1.32892
1.04519
1.02508
1.04288
1.02689
1.03434
1.02001
1.02712
1.01576
1.0262
1.01526
1.02495
1.01577
1.02417
1.0166
1.02438
1.01749
1.02479
1.0188
1.02598
1.01931
1.02669
1.01961
1.02672
1.01882
1.02578
1.01718
1.02455
1.01637
1.02434
1.01585
1.02522
1.01716
1.02774
1.01901
1.02928
1.01994
1.02949
1.01813
1.02746
1.01496
1.02476
1.01185
1.02418
1.0119
1.02581
1.01367
1.02799
1.01553
1.03069
1.017
1.03302
1.01735
1.03342
1.0148
1.03117
1.01079
1.02908
1.00901
1.02702
1.00687
1.02679
1.00707
1.03244
1.00568
1.03154
0.9939
1.03679
0.94784
1.33038
1.02202
1.04091
1.02656
1.03158
1.02145
1.02381
1.01506
1.02081
1.01607
1.01989
1.01592
1.02072
1.01541
1.02144
1.01599
1.02219
1.01714
1.02362
1.01811
1.02411
1.01975
1.02508
1.01932
1.02494
1.01847
1.02459
1.01748
1.02349
1.01617
1.02324
1.0163
1.02487
1.01731
1.02678
1.01924
1.02881
1.02008
1.02943
1.01904
1.02725
1.01501
1.02414
1.01228
1.02317
1.01213
1.02475
1.01385
1.02771
1.01581
1.03004
1.01679
1.03219
1.01712
1.03228
1.01493
1.03012
1.01123
1.02823
1.00946
1.02685
1.00669
1.02718
1.00698
1.03296
1.00711
1.0306
0.996168
1.0365
0.947924
1.32569
1.04419
1.02555
1.04135
1.02638
1.03325
1.0196
1.02638
1.01601
1.02591
1.01569
1.02532
1.01533
1.02374
1.01576
1.02294
1.01661
1.02302
1.01773
1.0237
1.01936
1.02559
1.01954
1.02627
1.01999
1.02666
1.01908
1.02568
1.01719
1.02447
1.01653
1.02425
1.01596
1.0252
1.01726
1.02759
1.01918
1.0292
1.02002
1.02956
1.01833
1.02732
1.01517
1.02456
1.01195
1.02407
1.01196
1.02566
1.01371
1.02779
1.01549
1.03051
1.01703
1.03292
1.01738
1.03316
1.01501
1.03095
1.01092
1.02888
1.00907
1.02683
1.00692
1.02667
1.00682
1.03194
1.0059
1.03126
0.994469
1.03632
0.945935
1.32708
1.0221
1.0401
1.02647
1.03107
1.02092
1.02324
1.01514
1.0211
1.01642
1.0205
1.01668
1.02045
1.01612
1.02132
1.01594
1.02091
1.01642
1.02222
1.01744
1.02332
1.01802
1.02415
1.01977
1.02516
1.01958
1.02506
1.01864
1.02453
1.01763
1.02357
1.01625
1.02333
1.01642
1.02483
1.01742
1.02675
1.01937
1.02869
1.02024
1.02936
1.01926
1.02741
1.0152
1.02424
1.0124
1.0231
1.01223
1.02461
1.01387
1.02761
1.0158
1.02998
1.01684
1.03212
1.01727
1.03214
1.01517
1.03003
1.01133
1.02814
1.00959
1.02669
1.00675
1.02708
1.00739
1.03284
1.00736
1.03055
0.996458
1.03966
0.946011
1.32253
1.04358
1.02572
1.04076
1.02622
1.03245
1.01961
1.02606
1.01661
1.02594
1.01668
1.02586
1.01583
1.02443
1.01494
1.02192
1.01617
1.02251
1.0172
1.02224
1.01836
1.02347
1.01988
1.02551
1.01982
1.02594
1.02001
1.02639
1.01923
1.02575
1.01751
1.02455
1.01663
1.02419
1.01595
1.02514
1.01737
1.0274
1.01917
1.02919
1.02012
1.02958
1.01848
1.02738
1.0153
1.02453
1.01204
1.02396
1.01197
1.02546
1.01372
1.0277
1.0155
1.03031
1.01708
1.03276
1.01744
1.033
1.01512
1.03085
1.01101
1.02865
1.00914
1.02676
1.00692
1.02657
1.00659
1.03167
1.00607
1.03113
0.992789
1.03814
0.948357
1.32352
1.02218
1.0402
1.02704
1.03052
1.02056
1.02304
1.01559
1.02163
1.01691
1.02146
1.01726
1.02095
1.0172
1.02072
1.01686
1.02086
1.01623
1.0214
1.01659
1.02165
1.01756
1.02334
1.01828
1.02416
1.01969
1.02525
1.01968
1.02534
1.01867
1.02466
1.01772
1.02359
1.01635
1.02335
1.01651
1.02469
1.01753
1.02662
1.01952
1.0287
1.02033
1.02929
1.0194
1.0274
1.01532
1.02425
1.01251
1.02302
1.0123
1.0244
1.01389
1.02747
1.01581
1.02982
1.01689
1.03186
1.01719
1.03214
1.01529
1.02996
1.01147
1.02794
1.00966
1.02653
1.00687
1.02696
1.00729
1.0327
1.00747
1.03052
0.995641
1.03746
0.948478
1.31939
1.04282
1.02581
1.04016
1.02597
1.03187
1.0198
1.02606
1.01745
1.02633
1.01808
1.02666
1.01701
1.02475
1.01606
1.02305
1.01606
1.02216
1.01689
1.02188
1.01773
1.02261
1.01846
1.02354
1.01968
1.0252
1.01997
1.0257
1.02019
1.02615
1.0194
1.02568
1.01765
1.02449
1.01677
1.0241
1.01609
1.02505
1.01741
1.02744
1.01926
1.029
1.02025
1.02951
1.0186
1.0274
1.01553
1.02444
1.01212
1.02381
1.012
1.02538
1.01373
1.02763
1.01549
1.03018
1.01716
1.03267
1.01776
1.03283
1.0152
1.03068
1.01107
1.02844
1.00928
1.02652
1.00692
1.02637
1.00664
1.0314
1.00631
1.03091
0.994196
1.03597
0.950214
1.31884
1.02298
1.03981
1.02656
1.02971
1.02052
1.02326
1.01637
1.02232
1.01759
1.02258
1.01803
1.02194
1.01823
1.02132
1.01764
1.02083
1.01699
1.02067
1.01634
1.02119
1.01655
1.0217
1.01766
1.02318
1.01848
1.0245
1.01984
1.02539
1.01982
1.02531
1.01891
1.02471
1.01788
1.02361
1.01647
1.02344
1.01661
1.02466
1.01768
1.02656
1.01961
1.02873
1.02039
1.02932
1.0195
1.02734
1.01553
1.02427
1.01257
1.02298
1.01233
1.02429
1.01388
1.02731
1.01583
1.02972
1.01692
1.03177
1.01728
1.03205
1.0153
1.0299
1.01156
1.02778
1.00978
1.02627
1.00696
1.02675
1.00732
1.03232
1.00754
1.0304
0.996476
1.03671
0.946252
1.31499
1.04189
1.02591
1.03927
1.02577
1.03152
1.02018
1.02631
1.01834
1.02688
1.01949
1.02719
1.01845
1.02556
1.0168
1.02311
1.01694
1.02248
1.01659
1.02193
1.01714
1.02172
1.01768
1.02243
1.01853
1.02354
1.01969
1.02475
1.02004
1.02561
1.02026
1.02609
1.01954
1.02562
1.01771
1.02453
1.01683
1.02406
1.01613
1.02501
1.0175
1.02728
1.01932
1.02892
1.02031
1.02951
1.01877
1.02732
1.01566
1.02441
1.01222
1.02372
1.01202
1.02523
1.01375
1.02746
1.01551
1.03006
1.01715
1.03252
1.01782
1.03269
1.01542
1.03057
1.01122
1.02821
1.00931
1.02642
1.00702
1.0262
1.00672
1.03129
1.00646
1.03071
0.994672
1.03826
0.950202
1.31559
1.02344
1.03922
1.02695
1.02951
1.02098
1.02372
1.01729
1.02306
1.01849
1.0239
1.01911
1.02308
1.01889
1.02167
1.01886
1.02156
1.01797
1.02094
1.01698
1.0206
1.01642
1.02092
1.01661
1.02161
1.01764
1.02317
1.01853
1.02451
1.01983
1.0254
1.01986
1.02535
1.0191
1.02478
1.01799
1.02364
1.01653
1.02339
1.01673
1.02459
1.01772
1.02658
1.01963
1.02873
1.02044
1.02929
1.01964
1.02733
1.01566
1.02427
1.01268
1.02287
1.01235
1.02417
1.01389
1.02722
1.01578
1.02963
1.01699
1.03161
1.01734
1.03195
1.01541
1.02982
1.01167
1.02765
1.00989
1.02608
1.00708
1.02652
1.00739
1.03204
1.00765
1.03038
0.995096
1.03757
0.950346
1.31207
1.04168
1.02649
1.03876
1.02571
1.03157
1.02081
1.02682
1.01928
1.02752
1.0208
1.02776
1.02014
1.02641
1.01856
1.02422
1.01803
1.02322
1.01696
1.02179
1.01678
1.02162
1.01743
1.02178
1.01779
1.02248
1.01845
1.02344
1.01974
1.02479
1.0202
1.02557
1.02041
1.02616
1.01962
1.02564
1.01783
1.02452
1.01697
1.0241
1.01623
1.02498
1.01758
1.02718
1.0194
1.02887
1.02042
1.02951
1.01888
1.02725
1.01578
1.02435
1.01224
1.0236
1.01203
1.02503
1.0138
1.02733
1.01553
1.02993
1.01721
1.03232
1.01792
1.03253
1.0155
1.0304
1.01132
1.02797
1.00943
1.02624
1.00706
1.02592
1.00673
1.03126
1.0065
1.03062
0.994103
1.03632
0.952
1.31252
1.02381
1.03888
1.02731
1.0295
1.0218
1.02402
1.0182
1.02373
1.01925
1.02477
1.0196
1.02417
1.01993
1.02283
1.02014
1.02221
1.01895
1.02143
1.01787
1.02115
1.01721
1.02064
1.01641
1.021
1.01665
1.02163
1.01749
1.02296
1.01858
1.02442
1.01986
1.02546
1.01997
1.02537
1.01916
1.02481
1.01807
1.02372
1.01659
1.02341
1.0168
1.02453
1.01775
1.02654
1.01968
1.02862
1.02053
1.0293
1.01977
1.02745
1.01578
1.02428
1.01271
1.02285
1.01238
1.02397
1.01384
1.02712
1.0158
1.0295
1.01704
1.03154
1.01745
1.0319
1.01553
1.02976
1.01174
1.02751
1.00992
1.02598
1.00727
1.02627
1.00729
1.03191
1.00768
1.03029
0.996103
1.03615
0.952311
1.30903
1.04128
1.02683
1.03863
1.02578
1.03183
1.02175
1.02739
1.02011
1.0282
1.0221
1.02842
1.02136
1.02695
1.02007
1.02507
1.01955
1.02414
1.01822
1.02253
1.01781
1.02169
1.01693
1.02123
1.0174
1.02173
1.01782
1.02234
1.01848
1.02361
1.01964
1.02484
1.02022
1.02562
1.02034
1.02606
1.01967
1.02565
1.01792
1.02446
1.01705
1.02407
1.01632
1.02493
1.01762
1.0271
1.01942
1.02886
1.0204
1.02948
1.01897
1.02727
1.01587
1.02432
1.01237
1.02353
1.01204
1.02499
1.01382
1.02716
1.01556
1.02971
1.01722
1.03217
1.01792
1.03236
1.01557
1.03021
1.01144
1.02768
1.00956
1.02606
1.00712
1.02575
1.0066
1.03114
1.00657
1.03052
0.995044
1.03458
0.953817
1.30942
1.02432
1.03874
1.02764
1.02979
1.02251
1.02444
1.01906
1.02437
1.01998
1.02543
1.02039
1.02495
1.02079
1.02442
1.0208
1.02304
1.01977
1.0221
1.01888
1.02181
1.01818
1.02114
1.01738
1.02072
1.01646
1.02092
1.01689
1.02172
1.0176
1.02301
1.01855
1.0243
1.01982
1.02545
1.02005
1.02544
1.01931
1.02478
1.01817
1.02379
1.01669
1.0234
1.01684
1.02446
1.01783
1.02651
1.01972
1.02862
1.02065
1.02927
1.01986
1.02749
1.01589
1.02428
1.01281
1.02277
1.01243
1.02387
1.01387
1.02699
1.01586
1.02929
1.01708
1.03141
1.01754
1.03177
1.01568
1.02966
1.01184
1.02737
1.00995
1.02586
1.00736
1.02611
1.0073
1.03157
1.00769
1.03025
0.996845
1.03445
0.954085
1.30546
1.04065
1.02706
1.03805
1.02602
1.0322
1.02247
1.02807
1.02088
1.02859
1.02277
1.02828
1.0226
1.02706
1.02116
1.02575
1.02064
1.02509
1.02021
1.02349
1.01882
1.0223
1.01793
1.02178
1.01701
1.02138
1.01734
1.02168
1.01765
1.02235
1.0185
1.02348
1.0197
1.02475
1.02019
1.02563
1.02039
1.0261
1.01973
1.02564
1.018
1.02448
1.01707
1.02403
1.01642
1.02489
1.01763
1.02697
1.0195
1.0288
1.02037
1.0295
1.01907
1.02725
1.01596
1.02431
1.01244
1.02345
1.01205
1.0248
1.01384
1.027
1.01567
1.02959
1.01721
1.03201
1.01793
1.03214
1.01566
1.03
1.01158
1.02744
1.00965
1.02592
1.00716
1.02554
1.00655
1.03099
1.00661
1.03047
0.995768
1.033
0.954993
1.30419
1.02477
1.03823
1.02802
1.03007
1.02325
1.02499
1.0199
1.02481
1.02037
1.02558
1.02067
1.02553
1.02132
1.02457
1.02103
1.02393
1.0211
1.02333
1.01994
1.02284
1.0194
1.02188
1.01824
1.02096
1.01752
1.02068
1.01685
1.02088
1.01678
1.0216
1.01762
1.02296
1.01855
1.02445
1.01984
1.02544
1.02013
1.0255
1.01945
1.02476
1.01828
1.02379
1.01681
1.02343
1.01687
1.02446
1.0179
1.02652
1.01973
1.02859
1.02074
1.02925
1.01987
1.02744
1.016
1.02423
1.01288
1.02268
1.01243
1.02382
1.01386
1.02686
1.01587
1.02917
1.01718
1.03124
1.0176
1.03169
1.01584
1.02943
1.01195
1.0272
1.01003
1.02577
1.00743
1.02595
1.00726
1.03132
1.00768
1.03023
0.997292
1.03349
0.956803
1.30163
1.04031
1.02783
1.03797
1.02651
1.03267
1.02317
1.02866
1.02134
1.02855
1.02298
1.02809
1.02302
1.02691
1.0222
1.02685
1.02223
1.0261
1.02123
1.02419
1.0203
1.02324
1.01895
1.02231
1.01797
1.02164
1.01716
1.02128
1.01717
1.02161
1.01756
1.02224
1.01842
1.02338
1.01969
1.02469
1.02022
1.0256
1.02037
1.02609
1.01975
1.02569
1.01812
1.02452
1.01712
1.02403
1.0165
1.02483
1.01761
1.02685
1.01956
1.02878
1.02045
1.02947
1.01922
1.02731
1.01604
1.02433
1.01248
1.02333
1.01208
1.02464
1.01385
1.02686
1.01572
1.02942
1.01723
1.03187
1.01804
1.03201
1.01582
1.0299
1.01167
1.02719
1.00968
1.02577
1.00716
1.02533
1.00649
1.03083
1.00668
1.03041
0.995873
1.03258