/*--------------------------------*- C++ -*----------------------------------*\
| =========                 |                                                 |
| \\      /  F ield         | OpenFOAM: The Open Source CFD Toolbox           |
|  \\    /   O peration     | Version:  2206                                  |
|   \\  /    A nd           | Website:  www.openfoam.com                      |
|    \\/     M anipulation  |                                                 |
\*---------------------------------------------------------------------------*/
FoamFile
{
    version     2.0;
    format      ascii;
    arch        "LSB;label=32;scalar=64";
    class       volScalarField;
    location    "190";
    object      rhoPrime2Mean;
}
// * * * * * * * * * * * * * * * * * * * * * * * * * * * * * * * * * * * * * //

dimensions      [2 -6 0 0 0 0 0];

internalField   nonuniform List<scalar> 
93840
(
0.0563233
0.00722828
0.10762
0.000792297
0.010183
0.105818
0.0048398
0.00245475
0.0046228
0.0633121
0.000150853
0.00297457
0.00362899
0.00183099
0.0596927
3.11258e-05
0.00294878
0.00183006
0.000700266
0.0048528
0.0812657
0.000124176
0.00168289
0.003462
0.0085516
0.00140633
0.0113411
0.107662
9.69984e-05
0.00141266
0.0012371
0.000671169
0.00378406
0.00133663
0.0134537
0.13917
0.000142164
0.0012501
0.00191603
0.00130852
0.00172518
0.00696705
0.00170343
0.0128213
0.13472
0.000146426
0.000555658
0.00117649
0.000877997
0.0010265
0.002153
0.0029476
0.00143805
0.0125166
0.166831
0.000110642
0.000686446
0.00100986
0.000731912
0.00200271
0.00287449
0.00333265
0.00270924
0.00243912
0.0136542
0.143912
0.000103558
0.00064653
0.000938185
0.000696858
0.00115873
0.00137031
0.00183363
0.00176192
0.0013313
0.00212133
0.0134557
0.161773
9.04773e-05
0.00054792
0.00102091
0.000677656
0.000914292
0.00227613
0.0014092
0.00187289
0.00151974
0.00245236
0.00304072
0.0135273
0.147656
9.56139e-05
0.000493868
0.000990906
0.000697705
0.000980315
0.00074387
0.00129481
0.00131276
0.000723932
0.00182069
0.00127092
0.00165273
0.0134723
0.166859
6.38319e-05
0.000357469
0.00107854
0.000770004
0.000694946
0.00171529
0.000775328
0.0017387
0.000920634
0.00165872
0.00161324
0.00207721
0.0029052
0.0134875
0.148982
8.54254e-05
0.000424073
0.00102092
0.00059613
0.000856596
0.000563759
0.00120399
0.000561691
0.000645728
0.0011976
0.000693277
0.00169546
0.00149672
0.00184412
0.0133011
0.169662
6.47361e-05
0.000300494
0.00110351
0.000845037
0.000604592
0.00148967
0.000365504
0.00122895
0.000663591
0.00137297
0.000977996
0.00158442
0.0016825
0.00194045
0.00268063
0.0133423
0.150914
9.96841e-05
0.000365926
0.00110405
0.00057831
0.000783309
0.000461109
0.00101794
0.000340258
0.000736717
0.000514139
0.000529803
0.00107397
0.000774625
0.00164003
0.00158265
0.0018592
0.0130395
0.171625
8.21902e-05
0.000317414
0.00114625
0.000845908
0.000477646
0.00143959
0.000249668
0.00108177
0.00039103
0.00102453
0.000619357
0.00132789
0.000887114
0.00153637
0.00165175
0.00190513
0.00255167
0.0131393
0.15215
0.000120707
0.000330684
0.00112561
0.000574609
0.000695821
0.000443394
0.000878758
0.000234804
0.000693217
0.000305009
0.000625042
0.000498847
0.000524055
0.00103434
0.000825041
0.00161644
0.00156122
0.00188069
0.0127292
0.17205
0.000116517
0.000383206
0.00116089
0.000878637
0.000423808
0.00131759
0.000196981
0.00107812
0.000290707
0.00101981
0.00040251
0.000903541
0.000611848
0.00121218
0.000929909
0.00148291
0.00157987
0.00175222
0.00246708
0.0129098
0.153186
0.000142397
0.000318253
0.00107236
0.000621943
0.000556221
0.000379053
0.000793406
0.000181071
0.000636144
0.000214726
0.000580128
0.000299535
0.000532968
0.000474705
0.000504152
0.000950738
0.000822305
0.00156977
0.00154303
0.00187952
0.0124296
0.171192
0.000184956
0.000429383
0.00119015
0.000840937
0.000362997
0.00124405
0.000163237
0.00100205
0.000242831
0.00112745
0.000273692
0.000915806
0.000417403
0.000869599
0.00063448
0.00113755
0.000810894
0.00142184
0.0015997
0.00162448
0.00239037
0.0127043
0.154486
0.000147908
0.000349922
0.00107663
0.000640294
0.000482504
0.000353948
0.000644878
0.000183324
0.000589304
0.000192093
0.000530542
0.000195179
0.00049092
0.000301642
0.00049216
0.000454928
0.000531062
0.000925735
0.000822156
0.00151027
0.00149264
0.00186492
0.0121132
0.169427
0.000202185
0.000514287
0.0012287
0.000798018
0.000315977
0.00114604
0.000140345
0.000868615
0.000142578
0.00101536
0.000177404
0.000830777
0.000296823
0.000848561
0.000377486
0.000617645
0.000538501
0.000930288
0.000753516
0.00128505
0.00158494
0.00156808
0.00230937
0.0121053
0.168152
0.000141605
0.000386904
0.000965418
0.000641337
0.000462379
0.000301412
0.000557198
0.000190092
0.000538354
0.000194174
0.000451829
0.000153551
0.000413057
0.000205324
0.000449416
0.000298166
0.000485329
0.000463658
0.000582864
0.00087764
0.000868952
0.00149843
0.00146605
0.00184768
0.0109407
0.173981
0.000208464
0.000512042
0.00133228
0.000815953
0.000309615
0.00107143
0.000118769
0.000744662
0.000104749
0.000818081
0.000135804
0.00069255
0.000184671
0.000803751
0.000273642
0.000675357
0.000372811
0.000621016
0.000492167
0.00076098
0.00073954
0.00123878
0.00158157
0.0015178
0.00224596
0.0130468
0.165794
0.00014353
0.000424799
0.000917095
0.000689438
0.000403207
0.000312506
0.00049134
0.000181467
0.000470437
0.000185778
0.00050396
0.000176423
0.000420154
0.000151017
0.000404834
0.000220057
0.000452708
0.000309701
0.000451557
0.000462378
0.000668212
0.000875624
0.000860265
0.00148213
0.00141974
0.00200288
0.0119491
0.166771
0.000198448
0.000495775
0.00139491
0.000710865
0.000329458
0.000951541
9.1786e-05
0.000625058
7.79181e-05
0.000709131
0.000101427
0.000604035
0.000130876
0.000647636
0.000177125
0.000647131
0.000249684
0.000603497
0.000349908
0.000632824
0.000482624
0.000747431
0.000765083
0.00120576
0.00157748
0.00141803
0.00228727
0.01205
0.161358
0.000144844
0.000429253
0.00083916
0.000732443
0.00038086
0.000296331
0.000502802
0.000193448
0.000416284
0.000172305
0.000432092
0.000183792
0.000433034
0.000170111
0.00042968
0.000158453
0.000416462
0.000218253
0.000460869
0.000321995
0.000442634
0.000481162
0.000625003
0.000911058
0.000882834
0.00147858
0.00143648
0.00181304
0.0111426
0.164076
0.000175141
0.000465545
0.00146907
0.000621335
0.000353843
0.000931731
8.86269e-05
0.000500979
8.07327e-05
0.000536314
7.55169e-05
0.000520217
0.000121417
0.000556402
0.000119768
0.00058797
0.000160376
0.00061462
0.000214152
0.00051216
0.000316552
0.000620686
0.000476425
0.000769016
0.000776971
0.0010731
0.00155647
0.00139372
0.00214018
0.0114369
0.159365
0.000161652
0.000378779
0.000745665
0.000764719
0.000338014
0.000282414
0.000449696
0.000177134
0.000398146
0.000168804
0.000410683
0.0001748
0.000414608
0.000173045
0.000417059
0.000154771
0.000423751
0.000167147
0.000413376
0.000207763
0.000443627
0.000332147
0.000436702
0.000505434
0.00061509
0.000937375
0.000969903
0.00142721
0.00144475
0.00182453
0.0105562
0.162173
0.000169304
0.000452792
0.00158097
0.000564101
0.000378146
0.000836591
0.000101266
0.000412739
8.71326e-05
0.000402372
8.40584e-05
0.000400901
0.0001091
0.000491357
0.000119344
0.000531454
0.000112104
0.00053374
0.000151326
0.000561771
0.000204883
0.000562898
0.000308369
0.000582861
0.00047656
0.000734543
0.000805255
0.00103594
0.00153297
0.00137691
0.00207197
0.0108235
0.158181
0.000174836
0.000372428
0.000670387
0.000788644
0.00031021
0.000278814
0.00038359
0.000147886
0.000391206
0.000147634
0.000360912
0.000149374
0.000360841
0.000146775
0.000368819
0.000148042
0.000370094
0.000142827
0.000404558
0.000157559
0.000413595
0.000203089
0.000437633
0.000337291
0.000426184
0.000506966
0.000596938
0.000937747
0.000966264
0.001397
0.00145471
0.00177822
0.0100074
0.16108
0.000163367
0.000399096
0.00160915
0.000535109
0.000371221
0.000787734
0.000104348
0.000370132
9.2587e-05
0.000346228
7.91182e-05
0.00036382
8.69647e-05
0.000387563
0.000118535
0.000443728
0.000120085
0.000473368
0.000124569
0.000481127
0.000152361
0.000536237
0.000197053
0.000547302
0.000290969
0.000586875
0.000473899
0.000728133
0.000788814
0.00106747
0.00152545
0.00141649
0.0019618
0.0118207
0.15736
0.00017601
0.000400291
0.00058047
0.000805182
0.000286772
0.000255443
0.00032975
0.000145558
0.000335941
0.000130045
0.000369297
0.00012414
0.000306
0.000124999
0.000316763
0.000131675
0.000339616
0.000135281
0.000353842
0.000135311
0.000386
0.000157679
0.000407121
0.000196921
0.000429531
0.000325994
0.000412807
0.000508267
0.000597965
0.000935978
0.000958041
0.001381
0.00143294
0.00173631
0.0109481
0.159972
0.000155015
0.000356033
0.00160602
0.000497858
0.00037544
0.000748329
0.000109031
0.000305169
0.000103554
0.000330069
0.000108183
0.000302801
8.2599e-05
0.000318491
8.10561e-05
0.000327854
0.000110727
0.000367993
0.000114811
0.000402662
0.000123241
0.00043585
0.000162532
0.00048479
0.000196656
0.000533334
0.000261688
0.000580199
0.00046705
0.000723203
0.000769175
0.00108103
0.0015059
0.00151895
0.00188291
0.0109969
0.156139
0.000178633
0.000436338
0.000530862
0.000885975
0.000252289
0.000263283
0.000288489
0.000167883
0.00029465
0.00015389
0.000319556
0.000128728
0.000301788
0.000106677
0.000261845
0.000109412
0.000277534
0.000105713
0.000333416
0.000127843
0.00034836
0.000127741
0.000381639
0.000144884
0.000425897
0.000184317
0.000424444
0.000323737
0.000453702
0.000492783
0.000596123
0.00092022
0.000955322
0.00136046
0.00148811
0.00168974
0.010246
0.158721
0.00016974
0.000311998
0.00156515
0.000430534
0.000446756
0.000660636
0.000125323
0.000270794
0.00011024
0.00029557
0.000112759
0.000265451
0.000103695
0.0002798
8.47007e-05
0.000276581
7.40264e-05
0.00028674
0.000100572
0.000306046
0.000117271
0.000378556
0.00012372
0.000426018
0.000150576
0.000463093
0.000179027
0.000530842
0.000265109
0.00056469
0.000444471
0.000734525
0.000769865
0.00107379
0.00147385
0.00140089
0.00181528
0.0103432
0.155336
0.000176554
0.000477573
0.000492027
0.000891683
0.000261615
0.000264904
0.000273842
0.000182459
0.000262941
0.000180043
0.0002827
0.000132869
0.000258844
0.000110698
0.000272139
0.000101142
0.000241451
0.000104392
0.000254667
9.67862e-05
0.000298957
0.000110718
0.000343787
0.000124939
0.000387853
0.000144834
0.000423307
0.000182619
0.000424995
0.000323778
0.000456482
0.00050119
0.000604065
0.000927334
0.00097813
0.00134829
0.00141695
0.00167801
0.011123
0.157851
0.000188083
0.000292716
0.00155077
0.00039717
0.000481791
0.000601343
0.000132487
0.000248629
0.000116043
0.000269992
9.76949e-05
0.000235964
0.000101375
0.000246836
9.26682e-05
0.000221329
7.76805e-05
0.000248914
6.74401e-05
0.000241072
9.16126e-05
0.000306334
0.000104225
0.000363355
0.00011861
0.0004103
0.000144748
0.000453176
0.000174371
0.000525337
0.000258947
0.00056259
0.000445265
0.000726152
0.000782938
0.00107822
0.00146587
0.00135422
0.0018449
0.0112129
0.154251
0.0001747
0.000547162
0.000420484
0.000912846
0.000247604
0.000269274
0.000271968
0.000207839
0.00022976
0.000174877
0.000235382
0.000134203
0.000226389
0.000141527
0.000237565
0.000102331
0.000248739
9.21798e-05
0.000227102
9.8705e-05
0.000238796
9.43496e-05
0.000288981
0.000110655
0.000337861
0.000119857
0.000382225
0.000134996
0.000421324
0.000177581
0.000429425
0.00032262
0.000461034
0.000501875
0.000619424
0.000923109
0.000982276
0.00133823
0.00160132
0.00171708
0.0102738
0.156778
0.000203269
0.000262615
0.00154935
0.00034743
0.000505473
0.000561014
0.000139405
0.000216583
0.000125429
0.000243364
0.000113577
0.00021464
9.63311e-05
0.000200275
7.42304e-05
0.000221684
8.06172e-05
0.000198089
7.16578e-05
0.000224948
6.43485e-05
0.000232847
9.09848e-05
0.000292022
9.83097e-05
0.000337282
0.000117836
0.000400567
0.000137297
0.000440982
0.000169783
0.000516406
0.000258593
0.000550227
0.000449365
0.000722835
0.000790578
0.00109125
0.00146188
0.00139776
0.00175616
0.0104177
0.152667
0.000166763
0.00061863
0.000345662
0.000887015
0.000222292
0.000302507
0.000274236
0.000215008
0.000197319
0.000201782
0.000201749
0.000157413
0.000205203
0.000119912
0.000208826
0.000126082
0.000214559
9.63966e-05
0.000224881
8.73776e-05
0.000211852
9.83672e-05
0.000226974
9.47e-05
0.00027846
0.000105995
0.000340243
0.000116523
0.000379619
0.000128075
0.000423655
0.000176802
0.000427893
0.000314196
0.000469518
0.000500706
0.000620746
0.000909737
0.000978035
0.00132378
0.00148231
0.00164727
0.00960311
0.155053
0.00022297
0.000245418
0.0014938
0.000304827
0.000511127
0.000502847
0.000147398
0.000188585
0.000143908
0.000208964
0.000131977
0.000209008
0.00010308
0.000181775
8.36595e-05
0.000203931
7.00926e-05
0.00018833
6.79112e-05
0.000176601
7.34354e-05
0.000196622
6.06455e-05
0.000221737
9.21565e-05
0.000282558
9.43685e-05
0.00032411
0.000118001
0.000390639
0.000137094
0.000427941
0.000169566
0.000504941
0.00025183
0.0005417
0.000448994
0.000733195
0.000791552
0.00111132
0.00145778
0.00130528
0.0016865
0.00973575
0.151202
0.000155892
0.00070462
0.000265118
0.000882507
0.000200672
0.000368773
0.00026448
0.000222791
0.00018241
0.000203652
0.000164081
0.000180128
0.000173432
0.000137365
0.000193104
0.000120925
0.000186485
0.00011024
0.00019229
9.28845e-05
0.000205522
8.27802e-05
0.000197984
9.48758e-05
0.000221057
9.25154e-05
0.000268005
0.000109436
0.000337062
0.000113642
0.000382679
0.000119544
0.000425763
0.0001783
0.000429693
0.000323517
0.000468821
0.000504841
0.000619316
0.000898971
0.000981407
0.00131624
0.00143879
0.00163208
0.0102455
0.153637
0.000237051
0.000228885
0.00143034
0.000253776
0.000538451
0.000440793
0.000168454
0.00016192
0.00016826
0.000173862
0.000158341
0.000179466
0.000112745
0.000199406
8.79302e-05
0.000166467
9.24731e-05
0.000177302
6.65628e-05
0.00017197
6.41751e-05
0.000165484
7.11321e-05
0.00019331
6.11657e-05
0.000216598
9.2286e-05
0.000266589
9.80905e-05
0.000307179
0.000116098
0.000381615
0.000124214
0.00042139
0.000171379
0.000484423
0.000258088
0.000534494
0.000452513
0.000732192
0.000798661
0.00111587
0.00145944
0.00126972
0.00174757
0.010405
0.14973
0.000151473
0.000735721
0.000210028
0.000895339
0.000189894
0.00043629
0.000252464
0.000231962
0.000176252
0.000188153
0.000139422
0.000172196
0.000139296
0.000154995
0.000152315
0.000128156
0.000174722
0.000114899
0.000172241
9.64587e-05
0.000180297
8.94977e-05
0.000195595
8.03137e-05
0.000185696
9.00641e-05
0.000219962
9.04008e-05
0.000260344
0.000101941
0.000322398
0.000111521
0.000390709
0.000131127
0.000424641
0.000178051
0.000416318
0.000324946
0.000473451
0.000505581
0.000622448
0.000896341
0.0009943
0.00131205
0.00161251
0.00168565
0.00943998
0.152159
0.000245615
0.00021149
0.00136204
0.00023087
0.000556666
0.000386289
0.000176851
0.000136059
0.000180888
0.000147865
0.000148379
0.000152321
0.000113208
0.000154068
9.65468e-05
0.000167896
8.00597e-05
0.000149634
7.06771e-05
0.000159026
6.30119e-05
0.000155249
6.77166e-05
0.000159703
7.4923e-05
0.000189692
6.69851e-05
0.000196245
7.99864e-05
0.000253565
9.59571e-05
0.000325826
0.000115031
0.000376754
0.000126487
0.000414631
0.000169724
0.000478954
0.000258791
0.000531278
0.000457756
0.000731159
0.000781571
0.00109783
0.0014499
0.00130637
0.0016885
0.00967594
0.148404
0.000146033
0.000698302
0.000188812
0.000882952
0.000191964
0.000503429
0.000227765
0.000264514
0.000199705
0.000182168
0.000123523
0.000160694
0.000114409
0.000149022
0.000131469
0.000133031
0.000144094
0.000118181
0.000152136
0.000103002
0.00016583
8.44515e-05
0.000166388
8.66228e-05
0.000179296
8.28451e-05
0.000179203
9.07469e-05
0.000218464
9.00805e-05
0.000250553
8.8003e-05
0.000317368
0.000108339
0.000388388
0.000132347
0.000427191
0.00018067
0.000421201
0.00032229
0.000474285
0.000504008
0.000628569
0.000872306
0.00101216
0.00131221
0.00153059
0.00165709
0.00882636
0.150862
0.00025936
0.000205509
0.00129856
0.000200195
0.000574781
0.000360314
0.000195324
0.000113172
0.000181447
0.000145723
0.000158643
0.00014096
0.000119716
0.000129448
0.000109947
0.000128698
7.52095e-05
0.000156158
7.54472e-05
0.000142583
6.13573e-05
0.000142667
5.51249e-05
0.000144422
6.12009e-05
0.000154393
7.39508e-05
0.000183445
6.99245e-05
0.000186803
8.14885e-05
0.000252227
8.344e-05
0.000312358
0.000115295
0.000368347
0.000127489
0.000410012
0.00016938
0.000467678
0.00025872
0.000529955
0.000464049
0.000729655
0.000758838
0.00109262
0.0014507
0.00123096
0.00166717
0.0102852
0.147072
0.00014742
0.000683258
0.000172129
0.000924013
0.000187715
0.000579877
0.000212715
0.000292487
0.000228515
0.000190442
0.00013028
0.000151611
0.000100919
0.000136356
0.000104639
0.000133518
0.000118202
0.00012743
0.000123561
0.000114392
0.000145132
8.90114e-05
0.000147822
8.02922e-05
0.000152636
8.1216e-05
0.000179519
7.89829e-05
0.000175712
8.43671e-05
0.000217403
8.83913e-05
0.000241374
8.62311e-05
0.000315699
0.00010432
0.000383794
0.000130971
0.000425916
0.000183893
0.000419734
0.000303258
0.000472486
0.000503467
0.000626786
0.000850738
0.00101133
0.00130898
0.0015057
0.00174427
0.00937694
0.149467
0.0002791
0.000202367
0.00122818
0.000190834
0.000610492
0.000341231
0.000226096
0.000101964
0.000176098
0.000154054
0.000146786
0.000140953
0.000118549
0.000108795
0.00012139
0.00011441
9.68326e-05
0.000132041
7.25989e-05
0.000135417
7.05506e-05
0.00012799
5.64713e-05
0.000125897
5.09361e-05
0.000139877
5.92237e-05
0.00015007
7.15626e-05
0.000176097
7.28359e-05
0.000183728
8.20026e-05
0.000252705
8.84248e-05
0.000301926
0.000116964
0.000362831
0.000131898
0.000406415
0.000169794
0.00047179
0.000245658
0.000527585
0.00045565
0.000721057
0.000746562
0.0010955
0.0014483
0.00133679
0.00167258
0.00950162
0.145589
0.000145267
0.000652049
0.00016946
0.000940878
0.000172259
0.000632102
0.000216669
0.000313034
0.000253293
0.000186432
0.000146377
0.00015194
0.000111815
0.000127569
7.79804e-05
0.000120957
9.18651e-05
0.00012438
0.000108233
0.000116123
0.000114479
0.000102991
0.000135337
7.1371e-05
0.000142457
7.57426e-05
0.000149772
7.67776e-05
0.000167843
7.50971e-05
0.000176118
8.13307e-05
0.000214477
8.55638e-05
0.00024397
8.77927e-05
0.000316221
0.000106624
0.000381546
0.000132616
0.00042971
0.000184241
0.000424859
0.000317535
0.000471386
0.000471382
0.000626893
0.000848989
0.00100964
0.00130851
0.00157407
0.0016632
0.00869174
0.148042
0.000290817
0.0002004
0.00115464
0.000194889
0.000667314
0.000306518
0.000253894
0.000102769
0.00016631
0.000145595
0.000128066
0.000134373
9.53523e-05
0.000107251
0.000107777
9.69289e-05
0.000108156
0.000104975
8.93765e-05
0.000117361
6.95685e-05
0.000120751
6.74196e-05
0.00011792
4.91842e-05
0.000120633
4.79347e-05
0.000133921
5.85028e-05
0.000143553
7.01564e-05
0.000171294
7.29705e-05
0.000184539
8.20126e-05
0.000246484
8.66578e-05
0.000296108
0.000113565
0.000359781
0.000133427
0.000396176
0.000169014
0.000468528
0.000253385
0.00053023
0.000429852
0.000723975
0.000748638
0.00109168
0.00144857
0.0012333
0.00160706
0.00891817
0.144105
0.000141733
0.000615366
0.000164819
0.000921295
0.000210817
0.000645736
0.000211453
0.000314007
0.000255928
0.000181937
0.000147078
0.000151718
0.000118021
0.000131069
8.23348e-05
0.000110666
6.81249e-05
0.000111973
8.65327e-05
0.00010755
9.56379e-05
0.000100065
0.000111316
9.0857e-05
0.000127778
6.99037e-05
0.000127206
6.80196e-05
0.000142994
7.17601e-05
0.000163064
7.43884e-05
0.000174454
8.14155e-05
0.000210098
8.56512e-05
0.0002458
8.56915e-05
0.000315008
0.000105184
0.000379634
0.00013484
0.000425688
0.000183172
0.000429801
0.000311916
0.000476454
0.000485104
0.000627983
0.000846085
0.00101397
0.0013033
0.00149603
0.00164687
0.00814694
0.146372
0.000298205
0.000198223
0.00108841
0.000193075
0.000706921
0.00030312
0.000263254
0.000100817
0.000171473
0.000137078
0.000114159
0.000119272
8.81927e-05
0.000103099
8.15108e-05
9.32344e-05
7.60237e-05
8.56717e-05
9.79971e-05
9.70751e-05
8.28116e-05
0.000100752
6.60658e-05
0.000108656
7.19665e-05
0.000108609
4.74131e-05
0.000122595
4.60469e-05
0.000126036
5.99191e-05
0.000139953
6.81805e-05
0.000168279
7.4789e-05
0.000187881
8.45445e-05
0.000242462
8.88811e-05
0.000292842
0.000113532
0.000354369
0.00013551
0.00039883
0.00017195
0.000463973
0.000255344
0.00052284
0.000429153
0.000724338
0.00075131
0.00109487
0.00144509
0.00123541
0.00157445
0.00837822
0.142356
0.000139305
0.000581237
0.000172659
0.000921764
0.000226875
0.000667447
0.000216659
0.000324765
0.000260477
0.000194559
0.000140155
0.000149528
0.000118779
0.000117472
0.000104012
0.000101675
7.32796e-05
0.000106238
6.05694e-05
0.000103867
7.68911e-05
8.81291e-05
8.97142e-05
9.7406e-05
0.000108402
6.8552e-05
0.000122696
6.44242e-05
0.000124373
6.42642e-05
0.000140469
6.55615e-05
0.000156784
7.23556e-05
0.000172513
8.27709e-05
0.000209846
8.47603e-05
0.000247867
8.76478e-05
0.000318186
0.000105494
0.000377952
0.000138093
0.000427822
0.000181314
0.000435704
0.000312699
0.00048148
0.000486738
0.000628073
0.00083952
0.0010142
0.00129256
0.00139895
0.00163807
0.00765341
0.14475
0.000307303
0.000216261
0.00102271
0.000180467
0.000689266
0.000283655
0.000269764
0.000103594
0.00017731
0.000140679
0.000114112
0.00011279
9.0264e-05
0.000104063
7.546e-05
9.00011e-05
6.91472e-05
7.50594e-05
6.97997e-05
7.48717e-05
9.02661e-05
8.55156e-05
8.39485e-05
8.43064e-05
6.4036e-05
0.000103779
7.1735e-05
0.000103081
4.57911e-05
0.000117816
4.45593e-05
0.000122435
6.14487e-05
0.000140689
7.08927e-05
0.000165174
7.78696e-05
0.00018427
8.64933e-05
0.000237631
8.88105e-05
0.000287105
0.000113374
0.000351814
0.000138404
0.00039957
0.000169157
0.000462835
0.00026274
0.000508785
0.00043717
0.000730271
0.00076041
0.00109851
0.00144325
0.00119413
0.00156953
0.00872635
0.140737
0.000136779
0.000562529
0.000163236
0.000937439
0.000247637
0.000648527
0.000199297
0.00033034
0.000270758
0.000201947
0.000131189
0.000165191
0.000115318
0.00012302
9.65667e-05
9.97722e-05
9.10789e-05
9.52155e-05
6.46066e-05
8.99989e-05
5.74324e-05
9.32302e-05
6.87465e-05
8.58717e-05
8.34504e-05
8.52667e-05
0.000101454
6.77041e-05
0.000114014
5.85096e-05
0.000119663
5.61785e-05
0.000137118
6.34222e-05
0.000151813
7.167e-05
0.000172006
8.52053e-05
0.000208141
9.09076e-05
0.000248617
8.88473e-05
0.000317818
0.000105856
0.000374782
0.000141773
0.00042995
0.000185559
0.000436838
0.000311394
0.000496359
0.000489986
0.000626368
0.000838252
0.00101856
0.00128375
0.00139104
0.00169293
0.0080296
0.142985
0.000315112
0.000226176
0.000896283
0.000182371
0.000649609
0.000258189
0.000282027
0.000104994
0.000190083
0.000141184
0.000122932
0.0001066
9.12356e-05
9.82484e-05
6.95565e-05
9.0407e-05
6.9827e-05
7.76932e-05
6.21968e-05
6.95398e-05
6.67936e-05
6.65196e-05
8.03305e-05
7.20788e-05
8.08638e-05
8.36014e-05
6.64222e-05
0.000100209
6.57019e-05
0.00010057
4.15015e-05
0.000115814
4.56473e-05
0.000117911
6.15667e-05
0.000139849
7.20837e-05
0.000162162
8.12966e-05
0.000182237
8.92317e-05
0.000236524
8.919e-05
0.000286363
0.000114511
0.000350663
0.000139456
0.000399883
0.000172366
0.000461685
0.000269803
0.000506579
0.00044846
0.000733213
0.000772663
0.00109791
0.00144173
0.00128423
0.00161517
0.00818273
0.139009
0.000133626
0.000549841
0.000166953
0.000948848
0.000254431
0.000612167
0.000188723
0.000329278
0.000284815
0.000195545
0.000134403
0.00017153
0.000112143
0.000138265
9.4073e-05
0.000106229
9.10463e-05
9.45502e-05
8.12805e-05
8.4813e-05
6.05119e-05
8.4288e-05
5.13175e-05
8.73145e-05
6.3923e-05
8.51392e-05
8.03878e-05
8.0713e-05
9.332e-05
6.74688e-05
0.00011185
5.41437e-05
0.00011624
5.2219e-05
0.000134001
6.09682e-05
0.000146831
7.14692e-05
0.000168389
8.74159e-05
0.000203981
9.39326e-05
0.000249087
8.76229e-05
0.000315724
0.000108305
0.000373101
0.000143403
0.000433457
0.00018785
0.000437704
0.000313727
0.000491735
0.000490649
0.000631329
0.000836997
0.00102665
0.0012702
0.00144388
0.00169324
0.00751813
0.141157
0.000326439
0.000224195
0.000846719
0.000167317
0.000615951
0.000236198
0.000296835
0.000103765
0.000199417
0.000136468
0.000128449
0.000116217
9.41543e-05
9.11973e-05
7.17482e-05
9.07535e-05
7.01823e-05
7.79517e-05
6.33117e-05
6.99739e-05
6.04597e-05
6.20228e-05
6.25356e-05
5.75522e-05
7.39977e-05
6.39569e-05
7.65035e-05
7.73619e-05
6.54949e-05
9.31818e-05
6.44611e-05
9.7573e-05
4.14388e-05
0.000111004
4.56316e-05
0.000114072
6.13506e-05
0.000139164
7.34315e-05
0.000160673
8.48875e-05
0.000182277
8.99137e-05
0.000236027
9.37113e-05
0.000286567
0.000116166
0.000347091
0.000139652
0.000391938
0.000174638
0.000456954
0.000276353
0.000508976
0.000456772
0.000735106
0.000779123
0.00110273
0.00142771
0.00122603
0.00160098
0.00764871
0.137315
0.000128196
0.00052295
0.000149813
0.000882623
0.000229272
0.000582022
0.000168545
0.000321172
0.000288395
0.000197624
0.000137731
0.000162184
0.000108594
0.000139126
9.67274e-05
0.000119298
8.24019e-05
0.000104946
8.41371e-05
8.50726e-05
7.32081e-05
8.07892e-05
5.49291e-05
7.67456e-05
4.71541e-05
8.22158e-05
5.97808e-05
8.24451e-05
7.55534e-05
7.59885e-05
9.00183e-05
6.7258e-05
0.00010796
5.23794e-05
0.000113477
5.12674e-05
0.000130551
5.96511e-05
0.000141723
7.1711e-05
0.000167665
9.0194e-05
0.000201848
9.54067e-05
0.000247601
8.92373e-05
0.000315954
0.000111257
0.000369366
0.00014353
0.000424881
0.000190309
0.000438843
0.000317873
0.000491746
0.00049739
0.000631581
0.000830058
0.00103212
0.00127119
0.00140036
0.00168729
0.00785783
0.139349
0.00032936
0.000232048
0.000797616
0.000157934
0.000583938
0.000209138
0.000297774
0.000104073
0.000202429
0.000132887
0.00013241
0.000116288
0.000100505
0.000100833
7.48547e-05
8.15053e-05
6.53476e-05
7.77797e-05
5.75606e-05
6.95137e-05
5.96951e-05
6.41331e-05
5.74215e-05
5.91524e-05
5.76754e-05
5.2955e-05
6.45813e-05
6.03163e-05
7.48018e-05
7.35473e-05
6.60006e-05
8.68267e-05
5.97697e-05
9.24436e-05
4.15671e-05
0.000107284
4.47817e-05
0.000110802
5.86367e-05
0.000140781
7.39851e-05
0.000159188
8.72804e-05
0.000187651
9.26057e-05
0.000238199
9.58703e-05
0.000281906
0.000114672
0.000346117
0.000140383
0.0004025
0.000178283
0.000457367
0.000284489
0.000510987
0.000465028
0.000734398
0.000781114
0.00109938
0.00141607
0.00120046
0.00167917
0.00801478
0.135699
0.000123793
0.000526947
0.000138261
0.000826856
0.000214044
0.000564406
0.00015238
0.000306985
0.000296488
0.000199077
0.000140585
0.000164838
0.000111059
0.000134637
8.7882e-05
0.000120872
8.68633e-05
9.722e-05
7.64226e-05
9.19749e-05
7.95755e-05
8.06032e-05
6.28514e-05
7.86782e-05
5.16705e-05
7.69231e-05
4.46323e-05
8.16147e-05
5.74748e-05
8.0033e-05
7.07653e-05
7.43862e-05
8.61753e-05
6.59036e-05
0.000103815
4.95329e-05
0.00011071
4.86057e-05
0.000126315
5.90174e-05
0.0001398
7.15697e-05
0.000166461
9.13168e-05
0.000202417
9.50338e-05
0.000248365
9.13786e-05
0.000312527
0.000114038
0.000368328
0.000143888
0.000422645
0.000191149
0.000436906
0.000322653
0.00049331
0.000500305
0.000633897
0.000815967
0.00105806
0.00127538
0.00149534
0.00176044
0.00729358
0.137522
0.000332492
0.000240595
0.000731242
0.000147145
0.000538059
0.000187966
0.000295073
0.000107514
0.00022031
0.000136271
0.000129103
0.000107459
9.63205e-05
8.69338e-05
8.71294e-05
8.58603e-05
6.37026e-05
7.79936e-05
6.35588e-05
6.51569e-05
5.36589e-05
6.19837e-05
5.5999e-05
5.9033e-05
5.45193e-05
5.36413e-05
5.85441e-05
4.96518e-05
6.21843e-05
5.73486e-05
7.40896e-05
6.80168e-05
6.677e-05
8.02795e-05
5.88463e-05
8.9045e-05
4.26677e-05
0.000105247
4.57797e-05
0.000107839
5.86313e-05
0.000138171
7.42016e-05
0.000160599
8.97752e-05
0.000189192
9.56542e-05
0.000236822
9.75012e-05
0.000284096
0.000107246
0.000342969
0.000142032
0.000403436
0.000182098
0.0004581
0.000290912
0.000511686
0.000474743
0.000736178
0.000770289
0.00108437
0.0014112
0.00122822
0.00166355
0.00746162
0.133873
0.000114524
0.000537201
0.000127005
0.000788531
0.000203202
0.000563241
0.000152898
0.000303748
0.000291702
0.000206284
0.000141477
0.000164492
0.00011565
0.000120001
0.000101201
0.000111843
7.67913e-05
0.000107134
7.1649e-05
8.59236e-05
7.67618e-05
8.16846e-05
7.17471e-05
7.55778e-05
6.18303e-05
7.45761e-05
4.83809e-05
7.40742e-05
4.25738e-05
7.90621e-05
5.51449e-05
8.04759e-05
6.66576e-05
7.20009e-05
8.16161e-05
6.51351e-05
9.99379e-05
4.79949e-05
0.000106787
4.96513e-05
0.000120407
5.85739e-05
0.000138282
7.28761e-05
0.000166009
9.40347e-05
0.000202903
9.58674e-05
0.000243574
9.35953e-05
0.000308218
0.000107954
0.000366859
0.000144227
0.000422094
0.000192732
0.000438513
0.000330271
0.000495539
0.000505602
0.000640712
0.000794157
0.00106503
0.00127246
0.00142656
0.00174994
0.00676334
0.135449
0.00032772
0.000234508
0.000724451
0.000133611
0.000495873
0.000178553
0.000301598
0.000116551
0.000242948
0.000144452
0.000141092
0.000111906
9.64602e-05
9.32719e-05
8.94902e-05
8.19065e-05
7.59268e-05
7.66639e-05
5.44304e-05
6.90339e-05
6.92988e-05
6.05402e-05
5.10841e-05
5.86883e-05
5.39118e-05
5.55522e-05
5.46236e-05
5.15206e-05
5.86657e-05
4.76087e-05
6.2315e-05
5.46019e-05
7.22957e-05
6.19309e-05
6.54442e-05
7.44894e-05
5.77104e-05
8.50473e-05
4.25466e-05
0.000101793
4.43626e-05
0.000106703
5.89548e-05
0.000134645
7.45831e-05
0.000160785
9.15986e-05
0.000191159
9.78495e-05
0.000239099
0.000100566
0.000284061
0.000114354
0.000341169
0.000143545
0.000399876
0.000187302
0.000456881
0.000299169
0.000513823
0.000482507
0.000740553
0.000741001
0.00108512
0.00139818
0.00116887
0.00162501
0.00694581
0.131881
0.000106215
0.000539303
0.000126854
0.000757469
0.000193969
0.000569788
0.000156034
0.000301522
0.000295653
0.000217884
0.00015235
0.00015832
0.000126685
0.000131621
0.000102927
0.000107082
8.46572e-05
9.35964e-05
6.91922e-05
9.36736e-05
6.55993e-05
7.09131e-05
6.90369e-05
7.20817e-05
6.67857e-05
7.18994e-05
5.94411e-05
7.01603e-05
4.59878e-05
7.18921e-05
4.06381e-05
7.78701e-05
5.1636e-05
7.84621e-05
6.39861e-05
7.08926e-05
7.78133e-05
6.40182e-05
9.71417e-05
4.56617e-05
0.000103173
4.72577e-05
0.000117138
5.80687e-05
0.000136111
7.49564e-05
0.000165593
9.49478e-05
0.000205278
9.62764e-05
0.00024654
9.62576e-05
0.000305824
0.000107403
0.000364932
0.000142161
0.000420099
0.000195054
0.000441089
0.000338197
0.000499829
0.000510745
0.000648246
0.000773642
0.00107136
0.00126334
0.00139995
0.00172653
0.00630943
0.133446
0.00032281
0.000232351
0.000668372
0.00012427
0.000462874
0.000172954
0.000298995
0.00013271
0.000251132
0.000158098
0.000142929
0.000123961
0.00010883
0.000100199
8.83434e-05
8.78605e-05