/*--------------------------------*- C++ -*----------------------------------*\
| =========                 |                                                 |
| \\      /  F ield         | OpenFOAM: The Open Source CFD Toolbox           |
|  \\    /   O peration     | Version:  2206                                  |
|   \\  /    A nd           | Website:  www.openfoam.com                      |
|    \\/     M anipulation  |                                                 |
\*---------------------------------------------------------------------------*/
FoamFile
{
    version     2.0;
    format      ascii;
    arch        "LSB;label=32;scalar=64";
    class       volVectorField;
    location    "190";
    object      rhoUMean;
}
// * * * * * * * * * * * * * * * * * * * * * * * * * * * * * * * * * * * * * //

dimensions      [1 -2 -1 0 0 0 0];

internalField   nonuniform List<vector> 
93840
(
(1.57219 -1.75068 1.52267e-17)
(0.467877 0.226016 5.2415e-18)
(1.37264 -1.67292 1.42455e-17)
(0.825684 -0.466001 -1.98701e-19)
(0.510676 0.226353 4.35195e-18)
(1.16984 -1.37667 1.55447e-17)
(0.760573 0.263179 3.87697e-17)
(0.785199 -0.133737 8.37302e-18)
(0.587829 0.235836 2.85854e-18)
(1.11147 -1.00881 2.42402e-17)
(1.0251 -0.112608 -1.87992e-17)
(0.871953 0.0721476 8.08799e-17)
(0.90014 -0.112495 1.99855e-17)
(0.741648 0.227479 -4.38948e-17)
(1.08447 -0.729237 -1.37007e-17)
(0.862877 0.0398048 -1.56231e-16)
(0.888232 -0.0547081 -4.68125e-17)
(0.648765 0.0784196 3.58551e-17)
(0.851775 -0.250457 2.47188e-17)
(0.769629 0.139226 -6.14045e-17)
(1.05177 -0.583402 6.41325e-18)
(0.864034 -0.0208715 -1.67085e-17)
(0.86544 0.0716839 -1.89522e-16)
(0.893531 -0.0313809 -6.60266e-17)
(0.812518 0.200728 3.95516e-17)
(0.678937 -0.122152 6.56599e-18)
(0.755868 0.0906624 4.6481e-17)
(1.06202 -0.59928 3.53468e-19)
(0.798341 0.0371661 6.17119e-17)
(0.858678 -0.0513006 1.95988e-17)
(0.875944 0.0821858 -1.39512e-16)
(0.921565 -0.0658304 -1.01091e-16)
(0.804076 0.134512 8.57286e-17)
(0.815608 -0.070541 -1.62894e-17)
(0.774072 0.107686 -3.46414e-17)
(1.04191 -0.606011 -1.64091e-17)
(0.858616 -0.018634 7.89742e-17)
(0.82551 0.0705534 8.82905e-17)
(0.860265 -0.0264812 1.25415e-17)
(0.854527 0.0553469 -1.47194e-16)
(0.850735 -0.0588431 -2.05266e-16)
(0.869097 0.102765 -4.45823e-17)
(0.804179 -0.00766471 -5.28278e-17)
(0.764633 0.112741 3.4942e-17)
(1.03224 -0.602716 7.08744e-18)
(0.813476 0.0384047 -7.83177e-18)
(0.877086 -0.0313828 8.5645e-17)
(0.841554 0.0755552 9.66751e-17)
(0.811063 -0.0112519 1.58322e-16)
(0.844969 0.0625636 9.24393e-17)
(0.847226 -0.0054166 -3.12116e-17)
(0.814247 0.0253691 9.62049e-17)
(0.823656 -0.0305406 1.7876e-17)
(0.772585 0.107979 -2.45458e-17)
(1.01235 -0.59609 -3.50108e-18)
(0.863333 -0.0170296 1.40557e-16)
(0.848535 0.051863 4.81787e-18)
(0.860584 -0.0218711 5.98516e-17)
(0.831108 0.0502162 8.30393e-17)
(0.823673 -0.0322035 7.42386e-17)
(0.862813 0.0345513 5.09288e-17)
(0.810414 0.0192046 -8.02051e-17)
(0.838304 0.0527255 -5.32097e-17)
(0.836139 -0.01628 -5.41011e-17)
(0.768099 0.111638 1.85417e-17)
(1.01089 -0.600165 2.72483e-18)
(0.82061 0.0384487 -1.11331e-16)
(0.866248 -0.0186867 1.32639e-16)
(0.854681 0.0682673 -7.82196e-18)
(0.863466 -0.00272744 2.60261e-17)
(0.874177 0.0600172 3.74192e-17)
(0.82687 0.0149422 -8.65429e-17)
(0.833209 0.0224361 -1.33127e-17)
(0.838678 0.0170757 -6.46691e-17)
(0.818373 0.0296631 7.53213e-17)
(0.83359 -0.0184925 7.56996e-18)
(0.772854 0.10947 -1.98576e-17)
(0.994833 -0.581159 -7.53768e-19)
(0.841213 -0.0158078 -1.81724e-17)
(0.837228 0.0514022 -1.59449e-16)
(0.856654 -0.0137059 1.02409e-16)
(0.87116 0.0424499 2.33902e-17)
(0.875695 -0.0130491 1.47584e-17)
(0.888447 0.0372323 2.87218e-17)
(0.85305 0.014444 1.3597e-16)
(0.863327 0.0343308 1.13355e-16)
(0.818931 0.0154273 -4.8062e-17)
(0.833722 0.0451389 -4.2353e-17)
(0.839765 -0.0126082 -4.40142e-17)
(0.772266 0.113432 1.16515e-17)
(0.996475 -0.590047 1.1708e-18)
(0.812528 0.0381488 -1.18907e-16)
(0.837508 -0.0159819 -1.60281e-17)
(0.84346 0.0616479 -1.40687e-16)
(0.840611 0.00248797 6.46925e-17)
(0.859861 0.0426018 1.48611e-17)
(0.836852 0.0144303 6.09875e-18)
(0.869479 0.0279523 -5.23959e-17)
(0.852607 0.0302399 -9.17889e-17)
(0.833154 0.0246346 -4.05495e-18)
(0.843788 0.0150319 -7.45829e-17)
(0.821936 0.0329523 6.0625e-17)
(0.835148 -0.0130688 1.09842e-17)
(0.775456 0.107053 -1.71048e-17)
(0.980512 -0.570205 -7.75356e-19)
(0.847328 -0.0150075 1.98685e-17)
(0.823822 0.0503724 -1.20915e-16)
(0.831008 -0.00869375 2.91666e-17)
(0.843322 0.0415803 -2.11992e-16)
(0.850186 -0.00326906 -1.32841e-16)
(0.869412 0.0356588 -8.29833e-17)
(0.8567 0.012773 -7.70014e-17)
(0.884259 0.0358268 -3.0698e-17)
(0.860035 0.0187949 6.55693e-17)
(0.863489 0.0396386 1.27793e-16)
(0.822453 0.0147731 -3.47406e-17)
(0.831748 0.0440681 -3.01349e-17)
(0.840528 -0.00907468 -4.38849e-17)
(0.774871 0.111299 8.17419e-18)
(0.985516 -0.580463 1.63714e-18)
(0.819228 0.0380135 2.38199e-17)
(0.837982 -0.0138316 2.18716e-17)
(0.82532 0.0564041 -1.35668e-16)
(0.803553 0.00339089 2.13495e-17)
(0.833865 0.0376406 -7.24701e-17)
(0.817426 0.0159108 -1.03004e-17)
(0.848373 0.0284267 9.60933e-17)
(0.833233 0.0285334 4.49147e-17)
(0.862273 0.0229003 -2.22374e-17)
(0.859311 0.0257741 -8.6098e-17)
(0.83802 0.0258392 1.4291e-19)
(0.842996 0.0148973 -7.78998e-17)
(0.824029 0.033133 4.91207e-17)
(0.836101 -0.00946917 1.04648e-17)
(0.777157 0.105775 -1.53754e-17)
(0.968957 -0.560232 -6.24486e-19)
(0.854786 -0.0144578 1.05123e-16)
(0.82806 0.0489031 6.69489e-17)
(0.828526 -0.00575391 3.84761e-17)
(0.830206 0.0412786 -1.67245e-16)
(0.831303 0.00109047 2.5674e-17)
(0.843961 0.0350853 1.00546e-16)
(0.833067 0.011703 1.23862e-16)
(0.857167 0.0357855 1.4184e-18)
(0.852424 0.0162835 -5.3618e-17)
(0.879513 0.0369029 -4.04657e-17)
(0.862763 0.0183763 3.57014e-17)
(0.864561 0.0428924 1.26692e-16)
(0.826216 0.0148628 -2.54402e-17)
(0.830239 0.0427409 -2.38148e-17)
(0.840878 -0.00558461 -4.40471e-17)
(0.776891 0.109761 4.6404e-18)
(0.976655 -0.57131 2.38176e-18)
(0.828549 0.0372008 -5.62648e-17)
(0.844065 -0.0117549 1.14281e-16)
(0.830925 0.0521282 9.95069e-17)
(0.813446 0.00472864 1.83354e-16)
(0.837354 0.0377049 4.90319e-17)
(0.816598 0.0176945 -8.59837e-17)
(0.838624 0.0289741 -2.39088e-16)
(0.817244 0.0265993 -1.34475e-16)
(0.843017 0.026502 5.63315e-17)
(0.834707 0.0297657 5.33233e-17)
(0.860721 0.0219044 -6.39043e-18)
(0.862557 0.0252178 -7.47323e-17)
(0.841077 0.0268179 6.85529e-18)
(0.841417 0.0161103 -7.85595e-17)
(0.825363 0.0333357 4.19682e-17)
(0.837268 -0.00689997 1.07845e-17)
(0.778512 0.104941 -1.40118e-17)
(0.959412 -0.551036 -1.86124e-18)
(0.865332 -0.0137094 2.98325e-17)
(0.838035 0.0478702 -5.55171e-17)
(0.841915 -0.00265885 7.25331e-17)
(0.840287 0.0420551 1.30023e-16)
(0.845536 0.00528242 1.74199e-16)
(0.853742 0.0357126 -2.72766e-17)
(0.842908 0.012224 1.2246e-17)
(0.847808 0.0364196 4.94556e-17)
(0.833277 0.0149123 1.46856e-16)
(0.852686 0.0354919 3.29167e-17)
(0.849406 0.016371 -4.31999e-17)
(0.876845 0.0370336 -4.72805e-17)
(0.86342 0.017736 6.43761e-18)
(0.864987 0.0436861 1.26958e-16)
(0.830138 0.0159413 -2.14972e-17)
(0.829168 0.0419411 -2.30825e-17)
(0.841553 -0.0033877 -4.25752e-17)
(0.778522 0.108625 2.17192e-18)
(0.969094 -0.562548 1.8241e-18)
(0.8313 0.0364313 -6.12552e-17)
(0.855228 -0.00979738 2.73189e-17)
(0.839281 0.0479547 -4.94511e-17)
(0.824853 0.00595546 1.37303e-17)
(0.842452 0.036921 -1.81064e-17)
(0.823041 0.0188291 -8.03016e-17)
(0.844304 0.0300402 6.12311e-17)
(0.823979 0.0265725 -5.60241e-18)
(0.840294 0.0280403 -2.15696e-16)
(0.818993 0.028242 -1.76852e-16)
(0.841148 0.0257507 2.80858e-17)
(0.835671 0.0310695 5.56226e-17)
(0.858328 0.0235777 7.91332e-19)
(0.865886 0.0249053 -6.50017e-17)
(0.843521 0.0276024 1.29937e-17)
(0.841094 0.0160452 -7.85562e-17)
(0.825177 0.0336126 3.88947e-17)
(0.838528 -0.00513911 9.27815e-18)
(0.779631 0.104452 -1.29733e-17)
(0.951271 -0.542093 -3.02199e-18)
(0.871259 -0.0135493 -1.00735e-16)
(0.84357 0.0465487 -9.21527e-17)
(0.851409 0.000549382 9.32704e-18)
(0.846539 0.0417647 -6.83893e-17)
(0.849147 0.00862275 -4.99101e-17)
(0.852392 0.0356539 1.26535e-16)
(0.84523 0.0133373 3.08434e-16)
(0.855452 0.0357079 1.79991e-16)
(0.844759 0.0144336 3.72289e-17)
(0.849235 0.0365311 2.67534e-17)
(0.834168 0.0155933 1.40993e-16)
(0.850373 0.0354477 5.00087e-17)
(0.847261 0.017111 -3.17265e-17)
(0.874966 0.0377551 -4.74691e-17)
(0.864005 0.0181778 -1.41772e-17)
(0.865731 0.0438024 1.26985e-16)
(0.833243 0.0172244 -1.78282e-17)
(0.827543 0.0410119 -1.74035e-17)
(0.842176 -0.00182701 -3.85338e-17)
(0.779899 0.107919 -5.16651e-19)
(0.962638 -0.553794 3.01043e-18)
(0.836114 0.0367206 3.03574e-16)
(0.864938 -0.00782494 -5.00052e-17)
(0.844526 0.0445656 -1.10467e-16)
(0.837359 0.00724637 -6.57485e-17)
(0.850751 0.0364525 -9.7638e-17)
(0.836374 0.020119 -4.24976e-17)
(0.855705 0.0302157 -8.52985e-17)
(0.831022 0.0264913 -1.66005e-16)
(0.84585 0.0293239 4.40189e-17)
(0.82616 0.0290434 3.61464e-17)
(0.841112 0.0280988 -1.85604e-16)
(0.820955 0.0290062 -1.91669e-16)
(0.839438 0.0252544 7.94061e-18)
(0.836776 0.0314005 5.2646e-17)
(0.856628 0.02462 2.90171e-18)
(0.866651 0.0246222 -6.25494e-17)
(0.84552 0.0293976 1.7054e-17)
(0.841429 0.0166162 -7.78525e-17)
(0.826119 0.0340779 3.20658e-17)
(0.839849 -0.00431443 8.22932e-18)
(0.780538 0.103998 -1.30992e-17)
(0.944158 -0.533209 -2.40827e-18)
(0.873133 -0.0130737 -3.69525e-16)
(0.853138 0.0454014 1.86132e-16)
(0.864529 0.00359678 -6.60697e-17)
(0.857078 0.0416938 -1.60482e-16)
(0.861235 0.0109474 1.73667e-17)
(0.862932 0.0359307 -2.74776e-17)
(0.859454 0.0147519 -1.06746e-16)
(0.861558 0.0351746 -1.24583e-16)
(0.846814 0.015446 2.02278e-16)
(0.856666 0.0356917 2.05111e-16)
(0.845613 0.0155913 6.01346e-17)
(0.849556 0.037079 1.69655e-17)
(0.834964 0.0169616 1.27656e-16)
(0.848674 0.0352507 6.02951e-17)
(0.844811 0.0171321 -1.9869e-17)
(0.873175 0.0380488 -4.32086e-17)
(0.864601 0.0186261 -2.6667e-17)
(0.865546 0.0432539 1.2576e-16)
(0.835486 0.0184411 -1.49044e-17)
(0.826651 0.0409365 -1.58941e-17)
(0.84301 -0.00101749 -3.87155e-17)
(0.780925 0.107471 -1.97102e-18)
(0.957275 -0.545073 2.12653e-18)
(0.843599 0.0371495 3.29884e-17)
(0.872443 -0.00563313 -3.85e-16)
(0.853189 0.0416513 1.85806e-16)
(0.853885 0.00870721 9.28458e-17)
(0.861876 0.0361102 2.75635e-17)
(0.850653 0.0212078 6.3322e-17)
(0.865438 0.0306317 -1.0608e-16)
(0.84456 0.0268255 -5.75876e-17)
(0.859306 0.0297832 -4.15688e-17)
(0.833859 0.0294623 -1.75641e-16)
(0.84691 0.0295739 1.67542e-17)
(0.828753 0.0300356 5.83677e-17)
(0.840615 0.0277029 -1.61771e-16)
(0.823145 0.0299108 -1.90429e-16)
(0.838209 0.0255686 -6.68862e-18)
(0.838293 0.0312628 4.74205e-17)
(0.855486 0.0255704 5.42876e-18)
(0.867619 0.0246226 -6.11785e-17)
(0.847382 0.0307326 2.14566e-17)
(0.841582 0.0165824 -7.62435e-17)
(0.825662 0.0347111 2.90241e-17)
(0.840885 -0.0040758 8.30123e-18)
(0.781199 0.103674 -1.20406e-17)
(0.938225 -0.524103 1.63054e-18)
(0.877118 -0.0119154 5.13323e-17)
(0.861798 0.0446935 1.53929e-16)
(0.878175 0.00596487 -2.91375e-16)
(0.869027 0.0411725 1.83668e-16)
(0.873952 0.0129524 1.03631e-16)
(0.874568 0.036202 -7.60796e-17)
(0.873209 0.016375 -1.46015e-16)
(0.873347 0.0351231 -5.0756e-17)
(0.863356 0.0165344 -9.6614e-17)
(0.864759 0.0338826 -1.73159e-16)
(0.846672 0.0168993 1.20313e-16)
(0.854853 0.0339275 2.08323e-16)
(0.846947 0.0168188 7.28621e-17)
(0.849734 0.0362678 7.91572e-18)
(0.834864 0.0183477 1.07325e-16)
(0.845969 0.0332945 6.53249e-17)
(0.842244 0.0179668 -7.31963e-18)
(0.870194 0.0377991 -3.70804e-17)
(0.865101 0.0186341 -3.80957e-17)
(0.864868 0.0425958 1.20732e-16)
(0.837861 0.0190144 -1.26476e-17)
(0.826005 0.0411079 -1.37647e-17)
(0.843912 -0.000909272 -3.92666e-17)
(0.781906 0.106663 -3.93513e-18)
(0.945715 -0.528515 -2.04112e-18)
(0.842945 0.0373195 1.30732e-16)
(0.872045 -0.00348682 3.32864e-17)
(0.856143 0.0394999 1.96543e-16)
(0.867566 0.0106665 -4.09843e-16)
(0.872322 0.0356975 -1.85452e-16)
(0.865703 0.0224597 -1.25068e-16)
(0.879357 0.0312229 -5.0797e-17)
(0.862635 0.027666 1.07916e-16)
(0.871193 0.031074 -5.35146e-17)
(0.847957 0.0292336 -6.28448e-17)
(0.860317 0.028807 -2.78276e-17)
(0.839667 0.0309521 -1.46101e-16)
(0.846794 0.0300093 5.44257e-18)
(0.830833 0.0308587 7.29568e-17)
(0.840995 0.0282959 -1.40358e-16)
(0.826107 0.029734 -1.79671e-16)
(0.839426 0.0277122 -1.43912e-17)
(0.840431 0.0307309 4.02719e-17)
(0.855965 0.0276569 3.0208e-18)
(0.868095 0.0244676 -5.72185e-17)
(0.849501 0.0322233 2.67645e-17)
(0.842037 0.0171958 -7.54521e-17)
(0.82549 0.035492 2.62451e-17)
(0.841898 -0.00431948 6.34517e-18)
(0.782007 0.102057 -1.17825e-17)
(0.941867 -0.526591 1.48137e-18)
(0.871429 -0.0110048 1.90662e-16)
(0.856152 0.0436666 1.54573e-16)
(0.873216 0.00776817 -6.32927e-18)
(0.869319 0.0396184 3.25376e-16)
(0.875597 0.0142996 -9.44092e-17)
(0.874663 0.0357998 2.50399e-18)
(0.872056 0.0176611 1.98369e-16)
(0.874709 0.0339391 2.90446e-16)
(0.872888 0.0175095 -1.97092e-17)
(0.875311 0.0341925 -3.32877e-17)
(0.865201 0.0184551 -7.9863e-17)
(0.86507 0.0338437 -1.94315e-16)
(0.847532 0.0179207 7.0766e-17)
(0.854808 0.0331635 2.01258e-16)
(0.84539 0.0194551 8.46026e-17)
(0.849216 0.0355292 4.59231e-19)
(0.835128 0.0201518 8.95083e-17)
(0.844389 0.0331809 6.82374e-17)
(0.840446 0.0185416 4.72255e-18)
(0.865559 0.0361254 -2.72139e-17)
(0.865311 0.0189178 -4.96856e-17)
(0.863471 0.0422728 1.15852e-16)
(0.839627 0.0195479 -9.86042e-18)
(0.82576 0.0413293 -1.20766e-17)
(0.844906 -0.00130003 -3.44921e-17)
(0.78068 0.106023 -5.68357e-18)
(0.942064 -0.524503 -1.58928e-18)
(0.834837 0.037215 -5.30333e-16)
(0.86173 -0.00198613 8.2845e-17)
(0.849458 0.0374591 1.29718e-16)
(0.866392 0.0131868 -6.06375e-17)
(0.867347 0.0347299 3.41143e-16)
(0.861927 0.0230634 3.72488e-16)
(0.871176 0.03092 3.32834e-16)
(0.859406 0.0281871 7.27751e-17)
(0.878193 0.0313051 -4.6017e-17)
(0.864173 0.0300992 1.07576e-16)
(0.873676 0.0312273 -2.79435e-17)
(0.850874 0.0304274 -6.37974e-17)
(0.860649 0.0295648 -2.32684e-17)
(0.841295 0.0311603 -1.40198e-16)
(0.847316 0.0302469 7.60998e-19)
(0.835233 0.0295422 8.35709e-17)
(0.841311 0.0286259 -1.23602e-16)
(0.827189 0.0295454 -1.73605e-16)
(0.838339 0.0281358 -1.97727e-17)
(0.841407 0.0297334 3.35223e-17)
(0.858356 0.030028 -4.82954e-19)
(0.868736 0.0245095 -5.83067e-17)
(0.852334 0.0332 3.21693e-17)
(0.842444 0.0178422 -7.35005e-17)
(0.825436 0.0369744 2.43924e-17)
(0.843769 -0.0045153 4.67259e-18)
(0.779255 0.106321 -1.00405e-17)
(0.936832 -0.516527 1.06747e-18)
(0.860955 -0.0101341 4.43228e-16)
(0.847893 0.0427215 -4.417e-16)
(0.865252 0.00917625 4.88775e-17)
(0.860192 0.0381141 1.84405e-16)
(0.866972 0.0152811 -1.29259e-16)
(0.864978 0.0350817 -1.83129e-16)
(0.86306 0.0187755 -3.10785e-16)
(0.869504 0.0335465 -4.09123e-16)
(0.870181 0.0185023 -9.65732e-17)
(0.874911 0.0327656 2.70789e-16)
(0.872177 0.0194145 3.35175e-17)
(0.875262 0.0337625 -2.13145e-17)
(0.866015 0.0191636 -6.46695e-17)
(0.866529 0.033717 -2.00659e-16)
(0.848024 0.0206775 2.63817e-17)
(0.853891 0.0331228 1.91765e-16)
(0.844888 0.0202917 9.45198e-17)
(0.84898 0.0345379 -7.9093e-18)
(0.835942 0.0209823 7.86603e-17)
(0.844109 0.0339224 6.55966e-17)
(0.839663 0.0194833 1.20466e-17)
(0.86377 0.0363373 -2.00394e-17)
(0.865209 0.0193271 -5.57157e-17)
(0.86337 0.0417052 1.12189e-16)
(0.840673 0.0197903 -6.02886e-18)
(0.825407 0.0415815 -1.01257e-17)
(0.846469 -0.00387529 -3.2456e-17)
(0.781366 0.108231 -8.32158e-18)
(0.937496 -0.514849 -1.21039e-18)
(0.826675 0.0370298 -7.66807e-18)
(0.849828 -0.000772343 4.92892e-16)
(0.840998 0.0356065 -3.83376e-16)
(0.856367 0.0156203 -1.32232e-16)
(0.85535 0.0335733 8.25715e-17)
(0.852335 0.0236811 1.64152e-16)
(0.861805 0.0307504 9.85771e-17)
(0.854228 0.0286116 1.5996e-16)
(0.869201 0.0315191 3.6798e-16)
(0.858037 0.0297847 1.63598e-16)
(0.877051 0.0305799 -3.54826e-17)
(0.866017 0.0301667 1.0002e-16)
(0.874412 0.0311933 -1.38789e-17)
(0.852808 0.0308862 -6.46547e-17)
(0.861136 0.0298996 -2.2082e-17)
(0.843684 0.0294771 -1.242e-16)
(0.847625 0.0305315 -5.8454e-18)
(0.836492 0.0297415 8.93561e-17)
(0.842028 0.0293298 -1.04494e-16)
(0.828062 0.0297934 -1.71293e-16)
(0.837846 0.0285176 -2.24686e-17)
(0.841172 0.0288585 3.09226e-17)
(0.857826 0.0306985 4.34434e-19)
(0.868486 0.0246756 -5.88054e-17)
(0.854132 0.0341392 3.69961e-17)
(0.84274 0.0182362 -7.38941e-17)
(0.825858 0.0390384 2.11505e-17)
(0.843648 -0.00593885 4.77822e-18)
(0.781108 0.106058 -1.04938e-17)
(0.933021 -0.507385 8.16621e-19)
(0.850195 -0.0093346 -2.69401e-16)
(0.833601 0.0416404 -1.66348e-16)
(0.850616 0.0102295 4.33855e-16)
(0.846945 0.0358638 -4.0728e-16)
(0.857368 0.0161395 -5.01145e-16)
(0.854275 0.0344672 -4.80308e-16)
(0.853943 0.0198338 -4.76269e-16)
(0.859588 0.0329726 -3.3381e-16)
(0.858818 0.0186566 -3.25784e-16)
(0.867463 0.0320156 -4.59982e-16)
(0.868401 0.0202826 -1.93049e-16)
(0.874312 0.0324883 2.39167e-16)
(0.872279 0.0203527 6.08463e-17)
(0.875818 0.0330328 -9.61561e-18)
(0.865561 0.020302 -5.16551e-17)
(0.866971 0.033694 -2.00714e-16)
(0.84878 0.0210132 8.94116e-19)
(0.853965 0.0330088 1.82083e-16)
(0.844688 0.0209096 1.03128e-16)
(0.846911 0.0335884 -2.42354e-17)
(0.835947 0.0211693 6.05625e-17)
(0.843699 0.0342322 6.17308e-17)
(0.839201 0.0198592 1.5783e-17)
(0.862939 0.0364811 -1.53129e-17)
(0.864696 0.01994 -6.26854e-17)
(0.861908 0.0409937 1.01327e-16)
(0.841741 0.0199412 -7.74658e-18)
(0.825413 0.0429446 -8.67531e-18)
(0.846397 -0.00536983 -3.18246e-17)
(0.782929 0.107327 -7.5039e-18)
(0.934052 -0.506323 -9.77619e-19)
(0.824429 0.0365853 3.80493e-16)
(0.836461 0.00067979 -1.92019e-16)
(0.82763 0.0336165 -2.36671e-16)
(0.840396 0.0176182 6.79757e-16)
(0.84265 0.0322825 3.18541e-16)
(0.840713 0.0244092 1.14744e-16)
(0.849534 0.0305271 1.59517e-16)
(0.841345 0.0290091 3.44762e-16)
(0.856602 0.0313278 2.46422e-16)
(0.851483 0.0296486 1.42035e-16)
(0.868488 0.0309772 3.5462e-16)
(0.857968 0.0305797 1.88483e-16)
(0.875878 0.0311888 -2.0881e-17)
(0.86648 0.0302606 9.85875e-17)
(0.875169 0.031278 -4.65652e-18)
(0.855335 0.0306301 -6.28745e-17)
(0.861606 0.0305627 -2.30063e-17)
(0.844758 0.0296067 -1.21438e-16)
(0.848045 0.0308562 -9.25692e-18)
(0.837739 0.0297497 9.614e-17)
(0.845534 0.0300423 -7.83153e-17)
(0.829311 0.0296678 -1.60275e-16)
(0.837476 0.028959 -2.62174e-17)
(0.840535 0.0284694 2.93464e-17)
(0.857566 0.030895 1.36639e-18)
(0.86873 0.0246109 -5.88791e-17)
(0.857003 0.0354024 4.67451e-17)
(0.843296 0.018475 -6.76485e-17)
(0.826062 0.0407538 2.12224e-17)
(0.843095 -0.00710041 4.73822e-18)
(0.781957 0.106303 -1.21681e-17)
(0.929895 -0.498914 6.18425e-19)
(0.847507 -0.00852331 -3.57806e-16)
(0.828884 0.0399295 3.45141e-16)
(0.843926 0.0112638 -6.42286e-17)
(0.833665 0.0352324 -4.05564e-16)
(0.845734 0.0169271 4.67721e-16)
(0.840337 0.0338001 3.94552e-16)
(0.840079 0.0205114 4.47301e-16)
(0.843683 0.0322709 1.43798e-16)
(0.845962 0.0190823 -2.88156e-16)
(0.857274 0.0324458 -3.12091e-16)
(0.857149 0.0202017 -2.96575e-16)
(0.865726 0.0319908 -4.27729e-16)
(0.867426 0.0207768 -2.28416e-16)
(0.874031 0.0325097 2.06472e-16)
(0.87165 0.0211747 7.63327e-17)
(0.875992 0.0324236 -7.55706e-19)
(0.86567 0.0206863 -4.16362e-17)
(0.86721 0.0333078 -1.95998e-16)
(0.849297 0.0214836 -2.12713e-17)
(0.853676 0.0328307 1.69857e-16)
(0.844508 0.0218762 1.09465e-16)
(0.846097 0.0334276 -2.19109e-17)
(0.835995 0.0213652 4.7777e-17)
(0.843418 0.0345826 5.78241e-17)
(0.838375 0.0204764 1.87475e-17)
(0.861964 0.0367978 -1.261e-17)
(0.864806 0.0204578 -6.73809e-17)
(0.861711 0.0406589 9.82803e-17)
(0.842787 0.01959 -8.88462e-18)
(0.825864 0.0440401 -9.45205e-18)
(0.845805 -0.00675232 -2.97366e-17)
(0.782773 0.108985 -9.16994e-18)
(0.93131 -0.497915 -8.15909e-18)
(0.822135 0.0357862 2.44012e-17)
(0.826234 0.00268403 -3.6449e-16)
(0.824708 0.0317491 3.56754e-16)
(0.831675 0.0188972 6.78569e-17)
(0.834919 0.0314004 -8.09884e-16)
(0.831326 0.0251777 -6.14043e-16)
(0.83913 0.0303682 -4.19153e-16)
(0.83093 0.0293157 -4.60475e-16)
(0.844856 0.0311617 -2.15879e-16)
(0.838577 0.0295865 2.26584e-16)
(0.855148 0.030697 2.48587e-16)
(0.850247 0.0298485 1.23384e-16)
(0.868383 0.029907 2.9228e-16)
(0.857632 0.030469 1.83833e-16)
(0.875003 0.0312752 -4.88916e-18)
(0.867424 0.0308408 9.88243e-17)
(0.87527 0.0317862 2.28274e-18)
(0.857502 0.0307117 -6.19422e-17)
(0.86215 0.0309726 -2.77335e-17)
(0.845935 0.0297452 -1.19212e-16)
(0.84851 0.0313049 -1.03388e-17)
(0.838444 0.0297339 9.82512e-17)
(0.845847 0.0302991 -6.77093e-17)
(0.830172 0.0296505 -1.54474e-16)
(0.837916 0.0293588 -2.4635e-17)
(0.840167 0.027986 2.84267e-17)
(0.856966 0.0314459 2.98285e-18)
(0.868279 0.02442 -6.29566e-17)
(0.858089 0.0362364 4.90672e-17)
(0.843713 0.0187195 -6.67949e-17)
(0.826767 0.0420065 1.90168e-17)
(0.844095 -0.00922971 6.23646e-18)
(0.78173 0.107324 -1.20081e-17)
(0.927436 -0.490741 5.53059e-18)
(0.841893 -0.00780811 -6.77962e-17)
(0.824589 0.0380199 1.1035e-16)
(0.838213 0.012013 -4.44224e-16)
(0.82179 0.0343464 3.44645e-16)
(0.836198 0.0177801 6.70294e-16)
(0.830612 0.0330625 3.73426e-16)
(0.831202 0.0211046 2.80204e-16)
(0.83406 0.0317636 3.4795e-16)
(0.834545 0.0196801 5.81709e-16)
(0.84166 0.0321044 3.42768e-16)
(0.843223 0.0199886 -1.83814e-16)
(0.855525 0.0318004 -2.93355e-16)
(0.855968 0.0218893 -2.68695e-16)
(0.864604 0.0317435 -4.10806e-16)
(0.86516 0.0224101 -2.12045e-16)
(0.873879 0.0320495 1.86634e-16)
(0.871864 0.0215474 8.94596e-17)
(0.875967 0.032126 6.80462e-18)
(0.865548 0.0215706 -3.39463e-17)
(0.867235 0.0329429 -1.90294e-16)
(0.849979 0.0221241 -3.79532e-17)
(0.853422 0.0327343 1.60061e-16)
(0.844109 0.0227547 1.15094e-16)
(0.846291 0.0332566 -2.3349e-17)
(0.836031 0.0215234 3.65095e-17)
(0.842559 0.0346933 5.11505e-17)
(0.837942 0.0214099 2.10031e-17)
(0.861089 0.036779 -8.45894e-18)
(0.864936 0.021109 -6.85537e-17)
(0.861963 0.0408179 9.64406e-17)
(0.84327 0.0197264 -7.3748e-18)
(0.826016 0.0457075 -7.0607e-18)
(0.846065 -0.00892434 -3.37378e-17)
(0.787697 0.0990915 -1.01022e-17)
(0.9282 -0.491073 -5.16947e-18)
(0.819102 0.0350811 1.06054e-16)
(0.822001 0.00488292 -5.35941e-17)
(0.826082 0.0304839 1.44879e-16)
(0.82526 0.0200232 -6.38709e-16)
(0.829618 0.0307053 -1.6063e-16)
(0.824401 0.0257847 2.54494e-16)
(0.831901 0.0302062 1.65999e-16)
(0.824144 0.0295445 2.18225e-17)
(0.835794 0.0305252 -1.67247e-16)
(0.828146 0.0295718 -4.44397e-16)
(0.843565 0.030689 -3.02002e-16)
(0.837434 0.0299609 1.63973e-16)
(0.854133 0.0304377 2.47842e-16)
(0.849982 0.0300765 1.01274e-16)
(0.867176 0.0298169 2.65715e-16)
(0.86026 0.0297992 1.39149e-16)
(0.873983 0.0316102 -2.03784e-19)
(0.867662 0.0309045 9.74638e-17)
(0.875445 0.0320261 8.04185e-18)
(0.859313 0.0306141 -5.84936e-17)
(0.862539 0.0313307 -3.1179e-17)
(0.846867 0.0297989 -1.17041e-16)
(0.848735 0.0314769 -1.25405e-17)
(0.839928 0.0294551 1.02791e-16)
(0.845956 0.0306402 -5.61415e-17)
(0.831242 0.0297964 -1.48096e-16)
(0.838374 0.030519 -1.97253e-17)
(0.839806 0.0272663 2.74959e-17)
(0.856509 0.0318329 4.59853e-18)
(0.868136 0.0242389 -6.46531e-17)
(0.858819 0.0368131 5.08069e-17)
(0.843916 0.0192001 -6.47451e-17)
(0.827534 0.0437531 1.4859e-17)
(0.837412 -0.00317555 7.66351e-18)
(0.786979 0.0986318 -1.18225e-17)
(0.924454 -0.484515 1.08424e-17)
(0.838469 -0.00734384 6.38859e-17)
(0.819162 0.0358604 1.42436e-16)
(0.833047 0.0125255 1.8716e-18)
(0.817754 0.0334851 2.94436e-16)
(0.833255 0.0186045 -4.88987e-16)
(0.82713 0.032534 -4.20314e-16)
(0.829609 0.0217416 -2.34396e-16)
(0.831967 0.0315309 -1.81047e-16)
(0.82975 0.0205265 -9.47323e-17)
(0.833655 0.0318791 1.56361e-16)
(0.832919 0.0203343 5.37703e-16)
(0.840388 0.0319526 4.09837e-16)
(0.84117 0.021174 -1.09582e-16)
(0.854007 0.0313682 -2.75125e-16)
(0.855101 0.0227358 -2.38498e-16)
(0.863885 0.0319881 -3.75613e-16)
(0.863882 0.0228199 -2.14534e-16)
(0.87332 0.0318864 1.65838e-16)
(0.871923 0.0219493 9.65899e-17)
(0.875907 0.0320758 1.44294e-17)
(0.865703 0.0223121 -2.8762e-17)
(0.86662 0.0328882 -1.7279e-16)
(0.850329 0.0226192 -5.58971e-17)
(0.852019 0.0329929 1.37698e-16)
(0.843937 0.0232761 1.17737e-16)
(0.846453 0.0332217 -2.14972e-17)
(0.836152 0.0217809 2.46511e-17)
(0.842268 0.0342253 4.71817e-17)
(0.837457 0.021847 2.33697e-17)
(0.860032 0.0369272 -7.58935e-18)
(0.864949 0.0214313 -7.48982e-17)
(0.862378 0.0408454 9.40217e-17)
(0.843453 0.019846 -4.96955e-18)
(0.828263 0.0446705 -2.5126e-18)
(0.840396 -0.00151542 -2.92872e-17)
(0.787047 0.10199 -1.11213e-17)
(0.925562 -0.483964 -3.1145e-18)
(0.822033 0.0343777 1.30641e-16)
(0.82273 0.00657792 -3.49873e-17)
(0.827812 0.0295855 5.72256e-17)
(0.82059 0.0207848 -4.91592e-17)
(0.827572 0.0302251 5.88659e-16)
(0.823978 0.0265422 3.14603e-16)
(0.835244 0.0305991 -8.58098e-17)
(0.831029 0.0301962 -5.98559e-17)
(0.83773 0.0304607 1.34469e-16)
(0.824615 0.0299497 1.06145e-16)
(0.835396 0.0300423 -7.70758e-17)
(0.827461 0.0299527 -3.92061e-16)
(0.842312 0.0300877 -3.34746e-16)
(0.837664 0.029932 1.13925e-16)
(0.853207 0.0305251 2.40869e-16)
(0.849676 0.030433 8.41456e-17)
(0.866308 0.0296826 2.17684e-16)
(0.860207 0.0301332 1.02155e-16)
(0.873249 0.0320201 6.35614e-18)
(0.868289 0.0309947 9.82952e-17)
(0.875577 0.0321733 1.17426e-17)
(0.860447 0.0302434 -5.36029e-17)
(0.864149 0.0313539 -4.49146e-17)
(0.847885 0.029638 -1.14359e-16)
(0.85073 0.0313033 -2.80747e-18)
(0.840527 0.0294455 1.09171e-16)
(0.845862 0.0309416 -4.93149e-17)
(0.832113 0.0299195 -1.41518e-16)
(0.838215 0.0308042 -2.54323e-17)
(0.839622 0.0270662 2.34433e-17)
(0.855985 0.0322516 8.64699e-18)
(0.867835 0.0241386 -6.34435e-17)
(0.859446 0.0370937 5.20959e-17)
(0.844436 0.0192979 -6.51285e-17)
(0.82912 0.0414172 1.08641e-17)
(0.839862 -0.00420481 3.31525e-18)
(0.786464 0.101658 -1.23543e-17)
(0.922095 -0.477459 2.05691e-18)
(0.846636 -0.00661023 -1.81557e-16)
(0.829981 0.0354742 5.69955e-17)
(0.845306 0.0136319 -1.8944e-17)
(0.825661 0.0328628 1.022e-16)
(0.839594 0.0196279 -6.10379e-17)
(0.835457 0.0325924 1.73984e-16)
(0.844709 0.0226654 2.02693e-16)
(0.848258 0.0319647 1.02074e-16)
(0.841606 0.0216256 1.76325e-17)
(0.836215 0.031875 -1.42545e-16)
(0.82989 0.0214325 -1.4311e-16)
(0.833251 0.0315495 7.31761e-17)
(0.832278 0.0210714 4.73389e-16)
(0.839543 0.0317042 4.28208e-16)
(0.839843 0.0221869 -5.66081e-17)
(0.85276 0.0308625 -2.54443e-16)
(0.854824 0.0227868 -2.15366e-16)
(0.863292 0.0314896 -3.44468e-16)
(0.864085 0.0227492 -2.0065e-16)
(0.872417 0.0322712 1.40248e-16)
(0.871669 0.0222493 1.03599e-16)
(0.875996 0.0322856 2.01081e-17)
(0.865638 0.0226649 -2.16119e-17)
(0.866518 0.0329594 -1.68451e-16)
(0.850465 0.0232969 -6.96944e-17)
(0.851587 0.0329152 1.2746e-16)
(0.843982 0.0238357 1.21002e-16)
(0.846826 0.0332898 -1.92318e-17)
(0.83605 0.0229434 7.28087e-18)
(0.842087 0.0345231 4.19299e-17)
(0.837177 0.0219264 2.47069e-17)
(0.859222 0.037052 -3.93222e-18)
(0.864829 0.0219065 -7.81577e-17)
(0.862955 0.0408449 9.12646e-17)
(0.843864 0.0204731 -9.04765e-18)
(0.827565 0.0454573 -6.49707e-18)
(0.842664 -0.00492993 -2.24251e-17)
(0.786322 0.104033 -1.20712e-17)
(0.923247 -0.476738 4.34083e-18)
(0.833466 0.0336396 2.73555e-17)
(0.833406 0.00797814 -1.11589e-16)
(0.836599 0.0286702 1.26753e-16)
(0.828291 0.0217561 1.50753e-16)
(0.839407 0.0302635 1.18129e-16)
(0.839309 0.0275735 -3.57479e-16)
(0.855024 0.0314801 -3.76483e-16)
(0.851294 0.031291 -2.07149e-16)
(0.851905 0.0312342 -2.29808e-16)
(0.835931 0.0303515 -1.69897e-16)
(0.839652 0.0297452 8.37473e-17)
(0.825954 0.0302892 1.17114e-16)
(0.834988 0.0297217 -2.70748e-17)
(0.826956 0.0299968 -3.48193e-16)
(0.841222 0.0300618 -3.37296e-16)
(0.838168 0.0293364 7.60174e-17)
(0.852134 0.0307151 2.33198e-16)
(0.849593 0.0305581 7.54698e-17)
(0.865492 0.0302326 1.93263e-16)
(0.860157 0.0300542 9.29643e-17)
(0.873797 0.0315662 1.94429e-17)
(0.868258 0.031092 9.82891e-17)
(0.875848 0.0322018 1.72501e-17)
(0.861184 0.0304104 -5.04182e-17)
(0.864702 0.0313449 -4.56442e-17)
(0.848673 0.0295448 -1.13947e-16)
(0.850906 0.0314848 -3.94753e-18)
(0.841187 0.0292375 1.0957e-16)
(0.845893 0.0311683 -4.18936e-17)
(0.832958 0.0290098 -1.25496e-16)
(0.838218 0.0310307 -2.40489e-17)
(0.83912 0.0271458 2.53375e-17)
(0.855645 0.0329042 9.79249e-18)
(0.867333 0.0242519 -6.45887e-17)
(0.860164 0.0372927 5.07545e-17)
(0.8447 0.0198887 -5.41728e-17)
(0.828807 0.0430352 1.43233e-17)
(0.840878 -0.00633034 -1.10462e-18)
(0.791014 0.0930642 -1.63428e-17)
(0.919558 -0.471902 -1.14271e-17)
(0.859908 -0.00566032 -2.91928e-16)
(0.844507 0.0351782 -3.15994e-18)
(0.854254 0.0147017 -1.44886e-16)
(0.835398 0.0325198 5.31226e-17)
(0.854128 0.0208055 -2.35057e-16)
(0.854797 0.0328937 -1.20409e-16)
(0.867082 0.0236589 -1.56219e-16)
(0.866198 0.0324295 -1.23414e-16)
(0.859512 0.022478 6.22247e-18)
(0.854081 0.032958 9.52063e-17)
(0.845078 0.0229246 6.19025e-17)
(0.838388 0.031974 -1.11329e-16)
(0.830389 0.0219507 -1.49008e-16)
(0.833083 0.0315627 2.28033e-17)
(0.830908 0.0225925 3.85319e-16)
(0.838803 0.0313987 4.23994e-16)
(0.838826 0.0227401 -1.94899e-17)
(0.851905 0.0305794 -2.37796e-16)
(0.853113 0.0235158 -1.91908e-16)
(0.862458 0.0314176 -3.06752e-16)
(0.863589 0.0233443 -2.07955e-16)
(0.871679 0.0323698 1.23388e-16)
(0.871774 0.0224024 1.10222e-16)
(0.876019 0.0322701 2.47068e-17)
(0.865834 0.0230158 -1.71865e-17)
(0.866597 0.0329871 -1.64212e-16)
(0.850745 0.0237495 -8.2299e-17)
(0.851657 0.0330571 1.16887e-16)
(0.843952 0.024043 1.26455e-16)
(0.847114 0.0333452 -1.62992e-17)
(0.835947 0.0232669 -3.44768e-19)
(0.842126 0.0347976 3.94288e-17)
(0.836732 0.0220733 2.5947e-17)
(0.858565 0.0367753 -6.89945e-19)
(0.864489 0.0223782 -8.07932e-17)
(0.863452 0.0409195 9.6308e-17)
(0.844097 0.0209968 -7.63096e-18)
(0.827559 0.0464148 -5.08473e-18)
(0.83667 0.00127774 -2.16304e-17)
(0.790981 0.096488 -9.72483e-18)
(0.920676 -0.471068 7.66994e-18)
(0.845398 0.0327849 7.29062e-17)
(0.850358 0.00898643 -2.65197e-16)
(0.850796 0.0289312 -1.01102e-16)
(0.846115 0.0228531 -3.5032e-16)
(0.858187 0.0306363 -2.78324e-16)
(0.859061 0.0284288 -2.17485e-16)
(0.871988 0.0320572 1.76116e-16)
(0.863024 0.0318479 3.89649e-16)
(0.865237 0.0317732 2.17025e-16)
(0.855918 0.0313203 -5.02592e-17)
(0.855708 0.0306378 -2.06324e-16)