/*--------------------------------*- C++ -*----------------------------------*\
| =========                 |                                                 |
| \\      /  F ield         | OpenFOAM: The Open Source CFD Toolbox           |
|  \\    /   O peration     | Version:  2206                                  |
|   \\  /    A nd           | Website:  www.openfoam.com                      |
|    \\/     M anipulation  |                                                 |
\*---------------------------------------------------------------------------*/
FoamFile
{
    version     2.0;
    format      ascii;
    arch        "LSB;label=32;scalar=64";
    class       volScalarField;
    location    "190";
    object      T;
}
// * * * * * * * * * * * * * * * * * * * * * * * * * * * * * * * * * * * * * //

dimensions      [0 0 0 1 0 0 0];

internalField   nonuniform List<scalar> 
93840
(
0.968051
1.0431
0.959295
1.10333
1.02887
0.971446
0.930258
1.08112
0.990883
0.985814
1.01149
1.07209
1.04854
0.951982
0.987633
0.997562
1.04488
1.08628
1.05821
0.975335
0.98688
1.01982
1.0116
1.05695
1.01737
1.09381
1.00401
0.978508
1.00372
1.02361
1.02332
1.04167
1.01959
1.05862
1.01416
0.979566
1.01633
0.994523
1.04701
1.02727
1.04037
0.993262
1.05359
1.01186
0.982409
0.997093
1.01612
1.00708
1.05389
1.02398
1.03184
1.03377
1.04105
1.01199
0.984834
1.01932
0.985819
1.04257
1.01859
1.04155
1.03013
1.03969
1.02688
1.03673
1.0117
0.9868
1.00158
1.01719
0.996406
1.03238
1.01295
1.03172
1.02252
1.02974
1.03156
1.03496
1.01205
0.9884
1.02452
0.993934
1.03483
0.999462
1.02429
1.00909
1.02032
1.0234
1.03726
1.02821
1.03377
1.01213
0.9899
1.00753
1.02411
1.00062
1.02108
1.00288
1.02111
1.01035
1.02572
1.0196
1.02649
1.02953
1.03309
1.01263
0.99116
1.02752
1.00057
1.03996
0.999581
1.02307
1.00001
1.01413
1.00664
1.01611
1.01993
1.03762
1.03008
1.03243
1.01257
0.992415
1.00711
1.03013
1.00631
1.02698
1.00092
1.01521
1.00102
1.0156
1.00053
1.02259
1.01551
1.02544
1.03024
1.03184
1.01289
0.993399
1.0255
1.00071
1.04069
1.00536
1.01995
0.998955
1.01327
1.00094
1.0133
1.00567
1.01502
1.01908
1.03637
1.02934
1.03116
1.0129
0.994405
1.00338
1.02912
1.00582
1.02957
1.00115
1.01841
1.00241
1.01732
0.994831
1.01229
0.997294
1.02045
1.01686
1.02738
1.0274
1.03068
1.01318
0.995281
1.0262
0.999787
1.0392
1.00652
1.02007
1.00303
1.0151
1.00271
1.01667
0.998343
1.01143
1.00389
1.01726
1.01754
1.03818
1.02825
1.03018
1.01316
0.99611
1.00149
1.02765
1.00644
1.0304
1.00606
1.02023
0.998331
1.01624
1.00013
1.00755
0.992105
1.01257
0.997673
1.02131
1.01908
1.02568
1.02617
1.0298
1.01344
0.996894
1.02308
0.998952
1.0368
1.008
1.02247
1.00552
1.01678
1.00677
1.01666
1.0028
1.01336
0.999115
1.00847
1.00439
1.01695
1.01861
1.0346
1.02797
1.02939
1.01334
0.997648
0.998624
1.02272
1.00569
1.02895
1.00767
1.02009
0.997101
1.01288
1.00083
1.01315
0.994961
1.00952
0.993406
1.00997
1.00006
1.01854
1.01554
1.02522
1.02531
1.02898
1.01365
0.998352
1.01658
0.994068
1.03414
1.00651
1.02332
1.00589
1.01395
1.00086
1.01953
1.00392
1.01721
0.993177
1.01154
0.997369
1.01146
1.00716
1.01319
1.01741
1.03416
1.028
1.02869
1.01357
0.999065
0.994369
1.01797
1.00242
1.02633
1.00275
1.01802
0.99359
1.01546
1.00516
1.01448
1.00099
1.00976
0.997919
1.00743
0.99745
1.01035
0.996579
1.01864
1.01557
1.02322
1.02584
1.02829
1.01387
0.999725
1.01877
0.988828
1.03421
1.00596
1.02133
1.00617
1.01253
0.99826
1.01614
1.00167
1.01784
1.00044
1.01515
0.998122
1.00843
0.997134
1.01132
1.00862
1.01178
1.01785
1.03182
1.02828
1.02815
1.01387
1.0004
0.994607
1.01922
1.00669
1.02326
1.00164
1.01685
0.993051
1.01304
0.999883
1.01351
0.998703
1.0156
0.998803
1.00796
1.00217
1.00808
0.998519
1.00649
0.997956
1.01611
1.01498
1.02109
1.02666
1.02776
1.01418
1.00104
1.0204
0.994915
1.03061
1.00253
1.0195
1.00685
1.0121
1.00034
1.01094
0.997475
1.0177
0.99846
1.01695
1.00111
1.0104
0.998128
1.00751
0.997344
1.0072
1.00671
1.01052
1.0166
1.03004
1.02736
1.02765
1.01414
1.0016
0.998114
1.01919
1.00587
1.0232
1.00343
1.01761
0.995806
1.00989
0.994591
1.01486
0.999137
1.01754
0.996827
1.01135
1.00067
1.0065
0.996499
1.00299
0.999659
1.00787
0.995782
1.01507
1.01514
1.02251
1.02581
1.02724
1.01456
1.00221
1.01956
0.995817
1.02976
1.00495
1.02159
1.00899
1.01222
0.996844
1.01068
1.00104
1.01639
1.00202
1.01756
1.0007
1.01414
1.00258
1.00951
0.999168
1.00608
0.999463
1.0054
1.00465
1.01197
1.01706
1.03051
1.02613
1.02712
1.01451
1.00277
0.996735
1.01728
1.00775
1.02574
1.00608
1.01756
0.998922
1.01104
0.997257
1.01142
0.995791
1.01618
0.998011
1.01555
0.998955
1.01
1.0004
1.00524
0.995957
1.00343
1.00004
1.00466
0.9964
1.01171
1.0118
1.02325
1.02351
1.02682
1.01507
1.00332
1.02225
0.99594
1.03408
1.00883
1.0258
1.01153
1.01664
0.997905
1.01281
1.00242
1.01443
1.00309
1.01672
1.00233
1.01638
1.00455
1.00996
1.00011
1.0079
0.998022
1.00274
0.999308
1.00318
1.00708
1.01109
1.01273
1.03148
1.02589
1.02678
1.01498
1.00382
0.998779
1.01698
1.01214
1.02816
1.00903
1.01816
1.00267
1.01247
0.997515
1.00904
1.00034
1.01302
0.999537
1.01346
1.00005
1.01262
1.00158
1.009
1.00179
1.00646
1.0021
0.999356
0.998769
1.00664
0.996686
1.01366
1.01176
1.0231
1.0218
1.02662
1.01588
1.00429
1.02512
0.993629
1.03284
1.01239
1.02932
1.01514
1.01972
1.00549
1.01532
1.00197
1.0139
1.00086
1.01254
1.00457
1.01614
1.00248
1.01274
1.00429
1.00949
1.00056
1.00459
0.998832
0.999875
0.997497
1.00806
1.00314
1.01485
1.01195
1.03115
1.02558
1.02663
1.01573
1.00481
0.999412
1.01954
1.01363
1.03284
1.01297
1.02221
1.00824
1.0164
0.998515
1.01432
0.999707
1.01095
0.995268
1.011
0.999445
1.01254
1.00132
1.01139
1.00029
1.00712
1.00257
1.00347
0.999533
1.002
0.996208
1.00487
0.996219
1.0129
1.01077
1.02219
1.02041
1.02663
1.01689
1.00542
1.02507
0.993953
1.03093
1.01596
1.03204
1.01845
1.02283
1.01126
1.01899
1.00753
1.0133
1.00206
1.01678
1.00063
1.01133
1.0026
1.01487
1.00163
1.01178
1.00154
1.00682
1.00207
1.00325
0.997713
1.00493
0.995052
1.00593
1.00465
1.01427
1.01125
1.03137
1.0265
1.0274
1.0115
1.00577
0.999638
1.01953
1.01313
1.03663
1.01635
1.0256
1.01171
1.01982
1.00625
1.01497
0.999643
1.01381
0.997221
1.013
0.998076
1.01109
0.999135
1.01326
0.999038
1.0105
1.00087
1.00527
1.00172
1.00206
0.997606
1.00611
0.994136
1.00405
0.994434
1.01129
1.0103
1.02323
1.02045
1.03332
1.0121
1.00624
1.02715
0.994791
1.02937
1.01972
1.03273
1.01819
1.02386
1.01156
1.01875
1.00829
1.01584
1.0054
1.01693
1.00198
1.01708
1.00159
1.01227
0.999564
1.01395
1.00098
1.00939
1.001
1.00643
1.00219
1.00118
0.99699
1.00439
0.997485
1.0025
1.00831
1.01359
1.01019
1.03166
1.02123
1.03237
1.01343
1.00667
0.998794
1.01877
1.00998
1.03738
1.0155
1.02336
1.01347
1.01879
1.00943
1.01479
0.999996
1.01529
0.998624
1.0153
0.999749
1.01221
0.998149
1.01122
0.996058
1.01128
0.998057
1.00902
1.00022
1.00454
1.00155
1.00111
0.995619
1.00488
0.998156
1.00154
0.99615
1.01192
1.00989
1.02063
1.02117
1.03111
1.0137
1.00716
1.02803
0.991397
1.02876
1.01943
1.03032
1.01821
1.02081
1.00868
1.01732
1.00462
1.01492
1.00342
1.01617
1.00626
1.01937
1.00168
1.01631
0.998516
1.01297
0.997959
1.01398
1.00024
1.00833
1.00046
1.0046
1.00179
1.00148
0.994933
1.00595
0.998965
1.00289
1.00012
1.0162
1.00961
1.03321
1.02276
1.03026
1.01511
1.00768
0.997784
1.01995
1.00994
1.03322
1.01284
1.02123
1.01217
1.01721
1.00804
1.01077
1.0022
1.01434
1.00052
1.01546
0.998889
1.01423
1.00151
1.01053
0.997145
1.01308
0.996317
1.01228
0.997279
1.00754
1.00077
1.0043
1.00031
1.00164
0.995089
1.00485
0.996669
1.0019
0.999195
1.01484
1.00847
1.02324
1.02104
1.03051
1.00955
1.00798
1.02593
0.998935
1.01869
1.01489
1.02687
1.01718
1.01771
1.00855
1.01619
1.00367
1.01735
1.0012
1.0147
1.00427
1.01623
1.00896
1.02019
1.00406
1.01415
0.998426
1.01345
0.99753
1.01128
1.0039
1.00671
1.00132
1.00415
1.00018
1.00383
0.996749
1.00551
0.997018
1.00293
0.997751
1.01704
1.00824
1.03235
1.0226
1.03557
1.01072
1.00845
0.999347
1.0115
1.00323
1.03108
1.01157
1.02028
1.00937
1.0157
1.00731
1.00807
1.00109
1.01278
1.00081
1.01391
1.00178
1.01527
1.00177
1.01291
1.00012
1.01129
0.998128
1.01234
0.99946
1.01053
1.00011
1.00573
1.00067
1.00366
0.999584
1.00439
0.996495
1.0055
0.995487
1.00392
0.996309
1.01665
1.00898
1.02168
1.01953
1.03452
1.01181
1.00886
1.02294
0.998418
1.01789
1.01404
1.02269
1.01658
1.01681
1.0067
1.02149
1.00389
1.0167
1.00124
1.01466
1.00227
1.01344
1.00497
1.01465
1.00868
1.01736
1.00309
1.01256
0.999025
1.01188
1.00169
1.00978
1.0048
1.00453
1.0024
1.00432
0.99851
1.00493
0.995923
1.0044
0.996302
1.0036
0.994903
1.01718
1.00748
1.0342
1.02025
1.03324
1.01266
1.00927
1.00098
1.0088
0.999041
1.02719
1.01033
1.02111
1.01043
1.01694
1.00986
1.01015
1.00761
1.01054
0.998955
1.01428
1.00104
1.01376
1.00404
1.01415
1.00214
1.01388
1.00271
1.01157
0.999632
1.01124
1.00164
1.00888
1.00266
1.00324
1.00099
1.0038
0.99787
1.00545
0.995271
1.00287
0.995564
1.0073
0.993832
1.01558
1.00953
1.02475
1.02266
1.03185
1.0133
1.00969
1.01841
0.999191
1.01894
1.01253
1.02184
1.01817
1.01589
1.00898
1.02043
1.01156
1.01429
1.00021
1.0155
1.00071
1.01417
1.00321
1.01306
1.00519
1.01256
1.00593
1.01512
1.00277
1.01207
1.00205
1.01064
1.00365
1.00785
1.00515
1.0023
1.00081
1.0045
0.997361
1.00639
0.996856
1.00297
0.994473
1.00718
0.993426
1.01926
1.00663
1.03393
1.02159
1.03105
1.01415
1.01019
1.00173
1.00761
1.00345
1.02472
1.01108
1.02256
1.01263
1.01727
1.01313
1.0111
1.00653
1.00934
1.00576
1.00999
1.00152
1.01365
1.00031
1.01328
1.00393
1.01216
1.00397
1.01335
1.003
1.01142
1.00083
1.00987
1.00448
1.00677
1.00335
1.00149
1.00076
1.00329
0.997039
1.00596
0.99607
1.00448
0.993093
1.0063
0.994944
1.0168
1.0077
1.02813
1.02121
1.03127
1.00955
1.01049
1.01563
0.9982
1.01821
1.0118
1.02208
1.01886
1.01788
1.01191
1.02001
1.01085
1.01454
1.00633
1.00929
0.998595
1.00956
1.00114
1.01255
1.00361
1.01193
1.00531
1.01336
1.00655
1.01452
1.00545
1.01355
1.00374
1.00889
1.00462
1.00568
1.00371
1.00065
1.00008
1.00579
0.997847
1.00559
0.995277
1.00467
0.991489
1.00479
0.992324
1.02001
1.00768
1.03285
1.02534
1.03566
1.01011
1.01088
0.999106
1.01284
1.00135
1.02581
1.01391
1.02359
1.01565
1.01726
1.01389
1.01397
1.00996
1.01098
1.00902
1.00872
1.0046
1.00998
0.999879
1.01114
0.99858
1.0148
1.00306
1.01161
1.00395
1.01325
1.00204
1.01177
1.00362
1.00795
1.00428
1.00466
1.00345
0.999918
0.999215
1.00498
0.9978
1.00601
0.996155
1.00598
0.990353
1.00707
0.994833
1.01621
1.00835
1.02651
1.01983
1.03452
1.01144
1.01126
1.01837
0.996472
1.02113
1.01179
1.02423
1.02093
1.02074
1.01133
1.01995
1.01116
1.0125
1.0093
1.00969
1.00339
1.00756
1.00175
1.00749
1.00259
1.01143
1.00226
1.01362
1.0038
1.01345
1.00646
1.0141
1.00458
1.0137
1.00424
1.00737
1.00531
1.00387
1.00268
1.00025
0.99831
1.00666
0.998771
1.00559
0.994616
1.00692
0.990596
1.01094
0.99529
1.02105
1.00792
1.035
1.02328
1.03325
1.01162
1.01169
0.997879
1.01732
1.00145
1.02445
1.01566
1.02449
1.01748
1.01661
1.01263
1.0139
1.01082
1.01181
1.00634
1.00899
1.00768
1.00598
1.00284
1.01015
1.00066
1.01199
0.999848
1.01429
1.00113
1.01312
1.00376
1.0132
1.00123
1.01262
1.00339
1.00668
1.00374
1.00315
1.00185
1.00071
0.997333
1.00547
0.998909
1.00579
0.994038
1.00748
0.989732
1.01022
0.995493
1.01803
1.00779
1.02641
1.02201
1.03234
1.01302
1.01213
1.02405
1.0005
1.02371
1.01527
1.02653
1.02178
1.02107
1.00795
1.02352
1.0124
1.01405
1.00734
1.01003
1.00706
1.00762
1.00318
1.00489
1.00139
1.00958
1.00091
1.01158
1.00317
1.01438
1.0039
1.01204
1.00714
1.01409
1.00416
1.0132
1.00489
1.00614
1.0035
1.00257
1.00091
1.0016
0.996589
1.00664
0.999029
1.00505
0.99418
1.00843
0.990253
1.00927
0.996534
1.02134
1.00736
1.03435
1.02342
1.03255
1.00786
1.01242
1.00253
1.01853
1.00519
1.02137
1.01651
1.0242
1.0188
1.0179
1.01662
1.01901
1.01127
1.01419
1.0061
1.00887
1.00554
1.00601
1.00289
1.00802
0.99993
1.00955
1.00075
1.01083
0.998477
1.01402
1.00382
1.01353
1.00353
1.01159
1.00326
1.01186
1.00213
1.006
1.00256
1.00266
0.99996
1.0028
0.995938
1.00597
0.99892
1.00529
0.994206
1.00895
0.991099
1.0082
0.996184
1.01941
1.00793
1.02729
1.02315
1.03631
1.00908
1.01283
1.02755
1.0005
1.01864
1.01147
1.02713
1.02297
1.02092
1.00614
1.02259
1.01058
1.01357
1.00524
1.01201
1.01041
1.00743
1.00515
1.00595
1.00177
1.00628
0.999243
1.00857
1.00205
1.01037
1.00238
1.01322
1.00365
1.01317
1.00609
1.01566
1.00435
1.01219
1.00452
1.00629
1.00127
1.00274
0.998974
1.00452
0.995221
1.00801
0.9992
1.00609
0.994219
1.00971
0.991727
1.00894
0.993524
1.02178
1.00607
1.03302
1.02462
1.03532
1.00966
1.01323
1.00639
1.01965
1.00079
1.02397
1.01863
1.02221
1.0177
1.01757
1.01683
1.01909
1.01206
1.019
1.00853
1.01174
1.00728
1.0069
1.0034
1.00662
1.00096
1.00786
0.997937
1.00837
1.00017
1.01018
1.00014
1.01357
1.00298
1.01183
1.00378
1.01189
1.00362
1.01153
1.00156
1.00651
1.00022
1.00376
0.998037
1.00455
0.995829
1.00657
0.998806
1.00627
0.994642
1.01141
0.989855
1.01401
0.997081
1.01979
1.00751
1.02499
1.02211
1.03414
1.01052
1.01362
1.02789
1.00342
1.016
1.01075
1.02609
1.02126
1.01968
1.00475
1.02471
1.00867
1.01974
1.00662
1.01665
1.00775
1.01091
1.00729
1.00694
1.00162
1.00777
0.999903
1.00732
0.998796
1.0078
1.00263
1.00964
1.00164
1.01227
1.00308
1.01367
1.00604
1.01206
1.00562
1.01057
1.00222
1.00747
0.999433
1.00378
0.997407
1.00442
0.996054
1.00732
0.99902
1.00645
0.995771
1.01075
0.990284
1.01533
0.997047
1.02278
1.0077
1.03437
1.02549
1.03311
1.01072
1.01399
1.00692
1.02068
0.998603
1.02189
1.01661
1.01967
1.01514
1.0175
1.01491
1.01991
1.00921
1.01799
1.00797
1.01368
1.00794
1.00989
1.00539
1.01204
1.00244
1.00681
0.998164
1.0091
0.998
1.00754
1.00051
1.00847
1.00146
1.01201
1.00271
1.01245
1.00412
1.01249
1.00129
1.01109
1.0016
1.00847
0.999024
1.00498
0.997434
1.00312
0.995527
1.0066
0.999104
1.00721
0.995589
1.01016
0.990617
1.01102
0.996323
1.01731
1.01045
1.02604
1.02501
1.03206
1.01157
1.01433
1.02814
1.00763
1.01404
1.00678
1.02436
1.02163
1.01976
1.00327
1.02524
1.00856
1.02219
1.00858
1.01876
1.00868
1.0157
1.0091
1.0103
1.00437
1.00837
1.00031
1.00734
0.999527
1.00876
0.997492
1.00707
1.00041
1.00906
1.00314
1.01189
1.00282
1.0136
1.00781
1.01221
1.003
1.01232
1.00065
1.00901
0.998857
1.00571
0.996725
1.00445
0.994955
1.00712
0.998692
1.00751
0.99596
1.01068
0.990698
1.01282
1.00038
1.02092
1.00751
1.0333
1.02535
1.03133
1.01154
1.01473
1.008
1.01769
0.999914
1.01933
1.01418
1.01785
1.01381
1.01744
1.01487
1.0199
1.01237
1.01655
1.00782
1.01638
1.00755
1.01333
1.00819
1.01465
1.00419
1.01039
0.999404
1.00699
0.99825
1.0104
0.996895
1.00726
0.999774
1.00975
1.00051
1.01164
1.00213
1.01284
1.00372
1.01292
1.00244
1.01168
0.999458
1.00902
0.998386
1.00491
0.995998
1.00456
0.994358
1.00698
0.999739
1.0075
0.997345
1.01043
0.991576
1.01246
0.998526
1.01771
1.01402
1.02583
1.02779
1.03076
1.01258
1.01513
1.02847
1.00832
1.00961
1.0058
1.02448
1.02217
1.01973
1.00374
1.02498
1.00691
1.02154
1.00443
1.01707
1.00923
1.01643
1.01093
1.01399
1.00732
1.01167
1.00348
1.00896
1.00149
1.00565
0.997892
1.00829
0.995953
1.00794
0.999022
1.00863
1.00024
1.01156
1.00169
1.01425
1.00413
1.01192
1.00112
1.01291
1.00011
1.00896
0.997925
1.00526
0.995414
1.00441
0.993819
1.00798
0.999249
1.00851
0.996317
1.01161
0.992154
1.01194
1.00065
1.01803
1.00955
1.029
1.02577
1.031
1.00867
1.01545
1.0131
1.01389
0.997509
1.02098
1.01368
1.01779
1.01464
1.01717
1.01661
1.01984
1.01269
1.01596
1.01008
1.01641
1.0086
1.01631
1.00859
1.01265
1.00668
1.0132
1.00168
1.01148
1.0009
1.00645
0.997146
1.01241
0.995186
1.00879
0.998182
1.01112
1.00007
1.012
1.00154
1.01367
1.00411
1.01256
1.00041
1.01242
1.00147
1.00885
0.997867
1.00552
0.994941
1.00473
0.993256
1.00644
0.999049
1.00998
0.996245
1.01082
0.994731
1.01184
1.00106
1.01768
1.01387
1.02731
1.02859
1.03484
1.00935
1.01583
1.02654
1.01125
1.00702
1.00679
1.02042
1.02219
1.02035
1.00204
1.02388
1.00708
1.01965
1.00687
1.01812
1.00721
1.01534
1.01034
1.01548
1.01117
1.01517
1.00618
1.01287
1.00371
1.00979
1.00137
1.00588
0.996196
1.00924
0.994532
1.00959
0.997668
1.00954
0.99935
1.01201
1.00101
1.01491
1.00372
1.01288
0.999882
1.01192
1.0017
1.00848
0.998029
1.00567
0.994143
1.00427
0.992656
1.00779
0.998425
1.00845
0.996648
1.01048
0.993594
1.01165
1.00132
1.01765
1.00932
1.02823
1.02394
1.03404
1.01001
1.01617
1.01378
1.01199
0.99607
1.01871
1.01249
1.01876
1.01461
1.01785
1.01512
1.01814
1.01631
1.01579
1.01064
1.01601
1.01063
1.01473
1.00994
1.01453
1.00932
1.01425
1.00519
1.01375
1.00551
1.00911
1.00089
1.00878
0.994921
1.01419
0.994278
1.01077
0.997605
1.01024
0.999377
1.01152
1.00139
1.01372
1.00305
1.0127
1.00169
1.01135
1.00177
1.00798
0.997792
1.00499
0.993467
1.00466
0.99198
1.00626
0.998856
1.00969
0.997009
1.01271
0.996733
1.01119
1.00176
1.01693
1.01375
1.02745
1.02837
1.03311
1.01034
1.01652
1.02469
1.00924
1.00479
1.00842
1.01867
1.0232
1.02294
1.00514
1.02583
1.01208
1.0206
1.00888
1.01822
1.00909
1.01434
1.00787
1.01392
1.00997
1.01393
1.0079
1.0143
1.00666
1.01289
1.00515
1.0096
1.00044
1.00931
0.994702
1.00899
0.993979
1.01026
0.997771
1.01019
0.999432
1.01356
1.00072
1.01641
1.00209
1.01437
1.00239
1.01095
1.00278
1.00745
0.997567
1.00513
0.992872
1.00569
0.991291
1.00739
0.998245
1.00864
0.996929
1.00922
0.995814
1.01069
1.00441
1.01596
1.01279
1.02793
1.02547
1.03247
1.01114
1.01686
1.0134
1.01072
0.994417
1.02269
1.0126
1.02087
1.01539
1.01961
1.01696
1.01839
1.01343
1.01561
1.014
1.01487
1.01133
1.01387
1.01212
1.01328
1.00942
1.0144
1.01005
1.01408
1.0066
1.0128
1.00472
1.01001
0.999975
1.00971
0.994831
1.01442
0.994491
1.01146
0.99771
1.01
0.997915
1.01236
1.00059
1.01424
1.0036
1.01205
1.00223
1.01078
1.00215
1.00679
0.99778
1.00511
0.992215
1.00527
0.990804
1.00772
0.999413
1.00992
0.997936
1.01086
0.997689
1.01037
1.00333
1.01525
1.01362
1.0276
1.02758
1.0327
1.0073
1.01722
1.02224
1.00619
1.00946
1.01402
1.01718
1.02327
1.02405
1.00654
1.02618
1.01533
1.01774
1.01206
1.01696
1.00929
1.01648
1.01146
1.01363
1.00915
1.01268
1.00919
1.0133
1.0075
1.01385
1.00629
1.01211
1.00493
1.01053
1.00047
1.00934
0.995299
1.00902
0.994997
1.01038
0.996933
1.01057
0.999688
1.01363
1.00033
1.01673
1.00298
1.0152
1.00238
1.0105
1.00222
1.00602
0.997651
1.00541
0.991336
1.00528
0.990419
1.00846
0.997579
1.00951
0.996721
1.00881
0.997731
1.00998
1.00709
1.01478
1.01322
1.02712
1.02734
1.03597
1.00794
1.01755
1.0131
1.01219
0.992902
1.02029
1.00878
1.02068
1.01724
1.02323
1.01611
1.02002
1.01472
1.01713
1.01525
1.01676
1.01517
1.01543
1.01316
1.01318
1.01224
1.01243
1.01188
1.01457
1.01055
1.01343
1.00779
1.01234
1.00467
1.01073
1.00074
1.01026
0.994658
1.01434
0.994926
1.01125
0.997945
1.01124
0.998916
1.01327
1.00213
1.01456
1.00152
1.01527
1.00241
1.01032
1.00213
1.00562
0.997413
1.00532
0.990554
1.0057
0.98992
1.00777
0.998255
1.01021
0.996991
1.01014
0.999916
1.00947
1.00212
1.01448
1.01346
1.02647
1.0262
1.03517
1.00868
1.01791
1.02042
1.00461
1.01426
1.01982
1.01786
1.0252
1.02764
1.01189
1.02461
1.01995
1.01838
1.01603
1.01626
1.01439
1.01723
1.01109
1.01458
1.01284
1.01285
1.00976
1.01216
1.00931
1.01298
1.00813
1.01342
1.00778
1.0129
1.00476
1.01063
0.99987
1.00928
0.996943
1.00895
0.996224
1.01083
0.997677
1.01031
0.998458
1.01412
1.00094
1.01751
1.00158
1.01601
1.00206
1.01023
1.00196
1.00613
0.996866
1.00639
0.989929
1.00698
0.99081
1.01136
0.997637
1.01147
0.996636
1.01014
0.99804
1.00874
1.00708
1.01441
1.01411
1.02626
1.026
1.03427
1.00902
1.01824
1.01157
1.01584
1.00092
1.02126
1.00789
1.02282
1.01937
1.02461
1.0155
1.02305
1.01515
1.01825
1.01685
1.01528
1.01399
1.01626
1.01527
1.01422
1.01282
1.01251
1.01201
1.01172
1.01102
1.01475
1.01188
1.01301
1.00597
1.01229
1.00512
1.0101
0.999417
1.01108
0.99578
1.01352
0.997116
1.01277
0.997322
1.01199
0.998857
1.01357
1.0008
1.01383
1.00163
1.0142
1.00173
1.01029
1.00142
1.00648
0.996297
1.00661
0.989934
1.00673
0.990578
1.00868
0.997185
1.01064
0.996549
1.00932
1.00111
1.00798
1.00451
1.01425
1.01323
1.02473
1.02654
1.03335
1.00966
1.01856
1.01887
1.00327
1.01237
1.01741
1.01852
1.02599
1.02826
1.01507
1.02061
1.02452
1.02003
1.01992
1.01623
1.01484
1.01484
1.01381
1.01568
1.01185
1.01401
1.01204
1.01174
1.00897
1.01145
1.01002
1.01288
1.00787
1.01263
1.00909
1.01258
1.00479
1.0102
0.999174
1.00996
0.998205
1.00915
0.996387
1.01192
0.997392
1.01056
0.998314
1.0147
1.00236
1.018
1.00202
1.01484
1.00139
1.01093
1.00107
1.00632
0.995676
1.00701
0.989447
1.00744
0.990878
1.01143
0.996412
1.01225
0.99611
1.00973
0.999552
1.00733
1.00621
1.01389
1.01224
1.02462
1.0269
1.03244
1.00978
1.01892
1.0105
1.01949
1.00561
1.02366
1.01196
1.02371
1.02097
1.02621
1.01362
1.02641
1.01623
1.01927
1.01605
1.0163
1.01507
1.01689
1.01454
1.01505
1.0149
1.01402
1.01214
1.01122
1.01241
1.01104
1.01011
1.01334
1.01196
1.0125
1.00697
1.01227
1.00517
1.01033
0.999022
1.01182
0.996618
1.01223
0.998124
1.01276
0.997093
1.01217
0.999891
1.01522
1.00078
1.01381
1.00195
1.01629
1.00118
1.01119
1.0007
1.00603
0.994977
1.00699
0.988821
1.00773
0.991614
1.00966
0.997268
1.01086
0.997062
1.00956
1.00124
1.00684
1.00355
1.01476
1.01179
1.02475
1.02669
1.03193
1.01051
1.01928
1.01678
1.0041
1.01243
1.01811
1.01931
1.02536
1.02946
1.01777
1.01802
1.0266
1.02013
1.02047
1.01532
1.01584
1.01615
1.01512
1.01406
1.01441
1.01454
1.01213
1.01361
1.012
1.01111
1.00878
1.01083
1.01029
1.01294
1.00839
1.0118
1.00853
1.01215
1.00613
1.01086
0.99941
1.01063
0.99932
1.0096
0.995923
1.0122
0.998225
1.01199
1.00009
1.01543
1.00227
1.01818
1.00142
1.01482
1.00087
1.01149
1.00052
1.00598
0.994225
1.00717
0.98966
1.00748
0.991796
1.01144
0.996515
1.01298
0.99676
1.01063
1.00036
1.0061
1.00443
1.01568
1.01051
1.02371
1.0277
1.03203
1.00713
1.01961
1.0088
1.02176
1.00607
1.02375
1.0123
1.02431
1.0224
1.02731
1.01288
1.02726
1.01651
1.0203
1.01608
1.0195
1.01502
1.01648
1.01417
1.01468
1.01432
1.01393
1.01416
1.01298
1.01162
1.01163
1.00972
1.01115
1.00952
1.0128
1.01199
1.0123
1.00674
1.01194
1.00463
1.01215
0.999265
1.0131
0.997528
1.01174
0.998678
1.01178
0.997447
1.01267
0.998417
1.01486
1.00069
1.01428
1.0013
1.01687
1.00101
1.01186
0.999925
1.00597
0.99364
1.00692
0.989751
1.0087
0.992069
1.0105
0.99645
1.01203
0.99722
1.00828
1.00096
1.00546
1.00217
1.01548
1.00935
1.02496
1.02717
1.03514
1.00761
1.01994
1.01985
1.00586
1.01386
1.0209
1.02002
1.0241
1.02856
1.01817
1.01417
1.02524
1.01985
1.02029
1.01908
1.01695
1.01717
1.01442
1.01691
1.01518
1.01477
1.01382
1.01338
1.01262
1.01256
1.0112
1.01082
1.00979
1.01113
1.0099
1.01227
1.00876
1.01232
1.00781
1.01158
1.00559
1.01201
1.00027
1.01138
0.998899
1.01018
0.997413
1.01161
0.998673
1.01146
1.00128
1.01648
1.00258
1.01806
1.00189
1.01555
0.999935
1.01164
0.99979
1.00661
0.992991
1.00903
0.988701
1.00842
0.992847
1.0114
0.99619
1.01256
0.996035
1.01016
1.00023
1.0047
1.0044
1.01517
1.00924
1.02521
1.02625
1.03436
1.00837
1.02034
1.00554
1.02172
1.00266
1.02445
1.01078
1.02436
1.02286
1.02794
1.01423
1.02744
1.01769
1.02219
1.01605
1.01821
1.01617
1.01891
1.01383
1.01659
1.01455
1.01552
1.01312
1.01278
1.01279
1.01206
1.01077
1.01092
1.00937
1.01099
1.009
1.01183
1.01013
1.0126
1.00626
1.01195
1.004
1.01239
1.00127
1.01297
0.997775
1.0119
0.999088
1.01117
0.997444
1.01393
0.998016
1.01636
1.00168
1.01428
1.00186
1.01571
1.00021
1.01096
0.999549
1.00767
0.992405
1.00962
0.989807
1.00704
0.992225
1.01056
0.996579
1.01446
0.997526
1.00864
1.00131
1.00425
1.00136
1.01592
1.00892
1.02594
1.02663
1.03339
1.00877
1.02067
1.02443
1.00975
1.01571
1.02199
1.02027
1.02456
1.02918
1.01835
1.01256
1.02338
1.02162
1.01831
1.0211
1.01763
1.01974
1.01575
1.01673
1.01297
1.01626
1.01319
1.01364
1.01444
1.01236
1.01236
1.01162
1.0102
1.01176
1.00903
1.01077
1.00899
1.01143
1.00956
1.01211
1.00736
1.01133
1.0049
1.01259
1.00088
1.01211
1.00031
1.01055
0.998752
1.01191
0.999164
1.013
1.00032
1.01662
1.00212
1.01823
1.00418
1.01566
1.00036
1.0105
0.99925
1.0078
0.991468
1.00967
0.991872
1.00662
0.994264
1.01153
0.996972
1.0124
0.995365
1.00814
1.00088
1.00403
1.00256
1.01467
1.00861
1.02494
1.02741
1.03266
1.00959
1.02104
1.00863
1.02108
1.00569
1.02397
1.01086
1.02356
1.02188
1.02626
1.01249
1.0269
1.01853
1.02102
1.01802
1.02199
1.01528
1.01891
1.01301
1.0214
1.01461
1.01694
1.01449
1.01398
1.0137
1.01214
1.01211
1.01151
1.00969
1.01072
1.00888
1.01125
1.00869
1.0116
1.00933
1.01265
1.00684
1.01225
1.00399
1.01269
1.00132
1.01298
0.999818
1.01199
0.998401
1.01124
0.999828
1.0127
0.999144
1.01546
1.00187
1.01429
1.00257
1.01554
1.00066
1.01093
0.998909
1.00805
0.992091
1.00877
0.991752
1.00672
0.993289
1.01112
0.995989
1.01413
0.997884
1.00775
1.00292
1.00379
1.00129
1.01492
1.00832
1.02586
1.02761
1.0327
1.00624
1.0214
1.02466
1.01021
1.01526
1.01992
1.01845
1.02425
1.02708
1.01692
1.01228
1.0219
1.02183
1.01753
1.01991
1.01724
1.02115
1.01687
1.01996
1.01565
1.01731
1.01465
1.0168
1.01439
1.01374
1.01426
1.01196
1.01148
1.01104
1.00945
1.01139
1.00905
1.01077
1.00848
1.01138
1.00891
1.01127
1.00739
1.01232
1.00369
1.01342
1.00124
1.01233
1.00119
1.01089
0.99905
1.01134
0.997645
1.0121
1.00227
1.01621
1.00139
1.01826
1.00243
1.01654
1.00041
1.011
0.998488
1.00888
0.9937
1.00869
0.991584
1.00772
0.993954
1.01192
0.998377
1.01336
0.998354
1.00736
1.00106
1.00331
1.00146
1.01539
1.00802
1.02666
1.02728
1.03561
1.00674
1.02175
1.01088
1.02194
1.00593
1.02196
1.01142
1.025
1.02136
1.02559
1.01328
1.02604
1.0193
1.02125
1.0178
1.02326
1.01524
1.02086
1.01674
1.01926
1.01372
1.01811
1.01398
1.01544
1.01306
1.01339
1.01351
1.01132
1.01134
1.01112
1.00931
1.01098
1.0091
1.01087
1.00879
1.0112
1.00892
1.01254
1.00753
1.01235
1.00354
1.01328
1.00209
1.01236
1.00058
1.01241
0.999854
1.01085
1.00032
1.0123
1.00176
1.01601
1.00171
1.01293
1.0018
1.01585
1.0005
1.01072
0.998025
1.00858
0.994068
1.00847
0.993691
1.00622
0.99386
1.0109
0.996666
1.015
0.998243
1.00702
1.00122
1.00288
1.0009
1.0151
1.00762
1.02696
1.02658
1.03482
1.00761
1.02216
1.02471
1.0116
1.01242
1.01802
1.01912
1.02403
1.0251
1.01561
1.01111
1.01939
1.02172
1.01765
1.01924
1.01673
1.02094
1.01619
1.02087
1.01587
1.01855
1.01491
1.01779
1.01553
1.01637
1.01674
1.01339
1.01316
1.01112
1.01105
1.01151
1.00912
1.01174
1.00896
1.01097
1.00806
1.01103
1.0088
1.01143
1.00756
1.01223
1.00348
1.0138
1.00289
1.01218
1.00187
1.01088
0.998928
1.01109
1.00019
1.01201
1.00354
1.01495
1.00324
1.0179
1.00273
1.01644
1.00199
1.01168
0.997642
1.00978
0.994233
1.00836
0.993525
1.00702
0.99442
1.01039
0.996406
1.01325
0.996364
1.0068
1.00145
1.00279
1.00001
1.01746
1.00694
1.02714
1.02699
1.03389
1.00783
1.02249
1.01525
1.02009
1.00556
1.02143
1.01341
1.02427
1.0187
1.02303
1.01243
1.02516
1.01824
1.02247
1.01796
1.02168
1.01386
1.02266
1.01567
1.02031
1.0163
1.01803
1.01432
1.01727
1.01472
1.01552
1.01232
1.013
1.01297
1.0111
1.01061
1.01123
1.00888
1.0109
1.00858
1.01109
1.00816
1.01102
1.00824
1.01233
1.00764
1.01295
1.00363
1.01385
1.00299
1.01212
1.00197
1.01121
1.00018
1.01095
1.00223
1.01159
1.00242
1.01521
1.00217
1.01544
1.00327
1.0157
1.00062
1.01169
0.997403
1.01068
0.995062
1.00797
0.993807
1.0059
0.9939
1.0098
0.99682
1.01618
0.997735
1.00651
1.00006
1.00331
0.998754
1.01714
1.0061
1.02768
1.0282
1.0331
1.00856
1.02286
1.02315
1.01378
1.00868
1.01371
1.01714
1.02158
1.02285
1.01541
1.01253
1.01811
1.02306
1.01509
1.02136
1.01799
1.02133
1.01604
1.02048
1.018
1.0199
1.01629
1.0174
1.01558
1.01761
1.01596
1.01665
1.01666
1.01279
1.01271
1.01149
1.01023
1.01076
1.00855
1.01128
1.00873
1.01053
1.00806
1.01134
1.00804
1.01251
1.00706
1.01294
1.00372
1.01365
1.00342
1.01168
1.00328
1.01147
0.999601
1.01099
1.00221
1.01148
1.0027
1.01619
1.00179
1.01811
1.00482
1.0161
1.00148
1.01043
0.997199
1.01096
0.995735
1.0078
0.995453
1.00617
0.994566
1.01097
0.996752
1.01347
0.996582
1.00628
0.99997
1.00329
0.998096
1.01754
1.00545
1.0269
1.02791
1.03241
1.00869
1.0232
1.01591
1.01981
1.00392
1.02191
1.01406
1.02376
1.01838
1.02287
1.01041
1.02326
1.01759
1.02177
1.01913
1.02173
1.01509
1.02132
1.01749
1.02061
1.01537
1.01933
1.01605
1.0177
1.01464
1.01731
1.01537
1.01633
1.01449
1.01336
1.01237
1.01172
1.00992
1.01126
1.00859
1.01053
1.00872
1.01072
1.00821
1.01167
1.0077
1.01293
1.00749
1.01249
1.00452
1.01341
1.00538
1.0115
1.00231
1.01131
1.00058
1.01037
1.00029
1.01152
1.00291
1.01528
1.0008
1.01489
1.00309
1.01553
1.00209
1.0109
0.996905
1.01162
0.996058
1.00767
0.995601
1.00543
0.994712
1.01055
0.996607
1.01399
0.997532
1.00584
1.00017
1.00221
0.997681
1.01914
1.00526
1.02907
1.028
1.03185
1.00938
1.02354
1.02291
1.0131
1.00832
1.01333
1.01762
1.02227
1.02305
1.01508
1.01272
1.01697
1.02477
1.01785
1.02322
1.01318
1.02178
1.01773
1.01915
1.01671
1.02053
1.01703
1.0193
1.01575
1.01774
1.01585
1.01635
1.01525
1.01581
1.01471
1.01429
1.01206
1.01213
1.00963
1.0117
1.00862
1.01055
1.00889
1.01036
1.00739
1.01157
1.00735
1.01212
1.00758
1.01291
1.00509
1.01305
1.00436
1.01105
1.00354
1.01081
1.00082
1.01031
1.00382
1.01156
1.00271
1.01428
1.003
1.01821
1.00456
1.01558
1.00247
1.01213
0.996973
1.01192
0.996728
1.00753
0.994153
1.00436
0.993836
1.01222
0.997714
1.01515
0.996561
1.00545
0.99938
1.00277
0.997184
1.01983
1.00536
1.02861
1.02832
1.03127
1.00944
1.02387
1.01735
1.01975
0.999186
1.02133
1.01275
1.02295
1.01658
1.02071
1.00816
1.02244
1.01881
1.02136
1.01814
1.02234
1.0202
1.02209
1.01593
1.02166
1.01808
1.0204
1.01524
1.01935
1.01456
1.0176
1.0149
1.01915
1.01518
1.0165
1.01432
1.01435
1.01171
1.01223
1.00964
1.01134
1.0082
1.01031
1.00791
1.01031
1.00758
1.01152
1.00711
1.01321
1.00716
1.01324
1.0052
1.01268
1.00589
1.01109
1.00286
1.01059
1.00149
1.01003
1.00005
1.011
1.00339
1.01566
1.0025
1.01449
1.00346
1.01529
1.00286
1.01153
0.997102
1.01134
0.997599
1.00731
0.995244
1.00453
0.994457
1.01187
0.997198
1.01503
0.997045
1.00542
0.998882
1.00456
0.996606
1.01973
1.005
1.02999
1.02901
1.031
1.01043
1.02419
1.02082
1.0127
1.00838
1.01448
1.01678
1.02105
1.0223
1.01535
1.01361
1.01759
1.02471
1.01761
1.02655
1.01537
1.02162
1.01689
1.0209
1.01725
1.01977
1.01573
1.02038
1.01593
1.01976
1.01544
1.01728
1.01517
1.01619
1.0155
1.01652
1.0145
1.01531
1.01141
1.01271
1.00961
1.01123
1.00773
1.01002
1.00845
1.01031
1.00689
1.01158
1.00715
1.01204
1.00797
1.01328
1.00608
1.01245
1.00568
1.01057
1.004
1.01032
1.00288
1.00973