/*--------------------------------*- C++ -*----------------------------------*\
| =========                 |                                                 |
| \\      /  F ield         | OpenFOAM: The Open Source CFD Toolbox           |
|  \\    /   O peration     | Version:  2206                                  |
|   \\  /    A nd           | Website:  www.openfoam.com                      |
|    \\/     M anipulation  |                                                 |
\*---------------------------------------------------------------------------*/
FoamFile
{
    version     2.0;
    format      ascii;
    arch        "LSB;label=32;scalar=64";
    class       volScalarField;
    location    "190";
    object      TPrime2Mean;
}
// * * * * * * * * * * * * * * * * * * * * * * * * * * * * * * * * * * * * * //

dimensions      [0 0 0 2 0 0 0];

internalField   nonuniform List<scalar> 
93840
(
0.000719743
0.000878399
0.00201706
0.000417691
0.00251449
0.0034494
0.00013498
0.000473343
0.000571819
0.00193144
0.000292224
0.00268691
0.000256994
0.000794754
0.000904038
6.9611e-05
0.000451719
0.00424264
0.000474204
0.000352804
0.00106992
4.10022e-05
0.000275109
0.000359809
0.000711004
0.0011708
0.000118396
0.00166334
1.52431e-05
0.000343939
0.000673374
0.000416887
0.00124159
0.000842994
0.000203108
0.00243159
2.4044e-05
0.000219985
0.000173702
0.000342408
6.87926e-05
0.000199427
0.000651638
0.000231587
0.00245475
2.9847e-05
0.000173169
0.000255601
0.000427288
0.00100679
0.000308118
0.00112393
0.000549209
0.000289754
0.00328695
1.0524e-05
0.000166326
0.000177226
0.000209323
0.000141391
0.000511266
9.62171e-05
0.000253601
0.000485151
0.000284813
0.00242567
1.61222e-05
7.48668e-05
0.000219819
0.000131882
0.000607228
0.000240707
0.00073857
0.000217858
0.000732552
0.000671342
0.000243234
0.00232244
9.70489e-06
0.000104809
0.000141643
0.000192456
0.000106724
0.000314776
0.000164495
0.000131405
0.000206265
0.000196785
0.000620343
0.000277155
0.00249776
2.03833e-05
6.75388e-05
0.00023729
8.25402e-05
0.000337229
0.000228697
0.000623235
0.000128663
0.00032538
0.000218736
0.000608974
0.000551947
0.000216846
0.00228955
1.17862e-05
8.30289e-05
0.000136624
0.000160875
8.86697e-05
0.000371227
5.18114e-05
0.000154173
0.000151123
9.1952e-05
0.00025784
0.0002094
0.000571381
0.000278702
0.00245613
1.83935e-05
6.08928e-05
0.000204479
0.000106684
0.000262517
0.000173423
0.000311301
0.000180506
0.000318479
0.000109263
0.000298712
0.000210661
0.00055863
0.000564148
0.000211461
0.00225681
1.2105e-05
6.7548e-05
0.000168201
0.000142965
7.58832e-05
0.000366119
7.27415e-05
0.000288016
7.76851e-05
9.20846e-05
0.000155029
9.72378e-05
0.000261455
0.000200588
0.000521667
0.000280839
0.00248854
2.3323e-05
5.12331e-05
0.00020102
0.00011331
0.000163836
0.000144706
0.000227702
0.00015165
0.000205426
0.000164823
0.000288111
9.73205e-05
0.000255407
0.000188239
0.000530676
0.000551892
0.000210365
0.00226523
1.27868e-05
6.18156e-05
0.000181401
0.00016231
6.84407e-05
0.000289685
4.26607e-05
0.00026013
6.86215e-05
0.000251647
9.13771e-05
9.02015e-05
0.00015993
0.000112314
0.000257868
0.000191038
0.000496559
0.000281307
0.00250046
2.31548e-05
4.74053e-05
0.000213262
0.000124417
0.000137619
9.74767e-05
0.0001602
9.03787e-05
0.000176781
0.000146253
0.000180513
0.000150811
0.000246873
9.09433e-05
0.000240584
0.000191632
0.00048738
0.000546953
0.000212339
0.00225274
1.75402e-05
5.85938e-05
0.000199716
0.000163749
5.88531e-05
0.000276274
2.46885e-05
0.000187948
4.86164e-05
0.000233984
6.92939e-05
0.000224595
0.000107012
9.7641e-05
0.000162032
0.00011219
0.000246577
0.000177029
0.00047132
0.000282135
0.00251274
2.56185e-05
4.11766e-05
0.000205102
0.00012178
0.00012407
8.84694e-05
0.000102426
6.04937e-05
0.000116097
8.61742e-05
0.00013949
0.00014071
0.000164125
0.000134524
0.000230939
8.77168e-05
0.00021151
0.000190382
0.000437342
0.000547001
0.000214997
0.00221309
2.09259e-05
7.12146e-05
0.000193017
0.000169375
5.42182e-05
0.000243184
2.39401e-05
0.000164789
3.36169e-05
0.00018574
4.84878e-05
0.000202477
7.53426e-05
0.000218062
0.000115928
8.70425e-05
0.000153136
0.000107455
0.000227733
0.000159138
0.000456006
0.000280722
0.00258533
2.79263e-05
4.18201e-05
0.000188385
0.000132095
0.000116702
7.56175e-05
9.95573e-05
3.19102e-05
8.21471e-05
6.08915e-05
9.34855e-05
7.21679e-05
0.000114862
0.000122422
0.00015778
0.000114487
0.000205359
9.21229e-05
0.000182069
0.000199097
0.000399172
0.000543551
0.000220054
0.00217735
2.55921e-05
7.15985e-05
0.00019536
0.000187434
6.06649e-05
0.000240143
2.12321e-05
0.000163105
2.80938e-05
0.000164114
3.36496e-05
0.000139282
4.937e-05
0.00018634
7.90608e-05
0.000185532
0.000122409
0.000100499
0.000142596
9.87809e-05
0.000218925
0.000152648
0.00044606
0.000297299
0.00270354
2.81199e-05
4.40466e-05
0.000205343
0.000153565
9.64298e-05
8.01626e-05
9.44259e-05
3.43356e-05
6.7729e-05
2.81729e-05
6.0573e-05
4.989e-05
7.65995e-05
7.31658e-05
0.000104391
0.000105101
0.000145314
0.000105652
0.000174767
9.7153e-05
0.000158043
0.000207787
0.00037322
0.000542231
0.000268932
0.00287628
2.62587e-05
7.64855e-05
0.000184049
0.000174217
5.51314e-05
0.00023516
1.29377e-05
0.000137655
1.80302e-05
0.000159675
3.18847e-05
0.000119802
3.83896e-05
0.00013478
5.23667e-05
0.000158829
8.48659e-05
0.000184424
0.000109718
0.000114135
0.000136381
8.84451e-05
0.000211824
0.000145475
0.000454241
0.000231098
0.002534
3.06332e-05
4.98966e-05
0.000189242
0.000154158
9.97703e-05
5.75562e-05
0.00010754
3.96503e-05
7.6924e-05
2.69016e-05
6.21568e-05
2.66353e-05
5.78554e-05
5.23039e-05
7.15312e-05
7.04817e-05
9.67526e-05
9.60792e-05
0.000141507
0.000106531
0.00014346
9.39243e-05
0.000141635
0.000214598
0.000338207
0.000593415
0.000180265
0.00253175
2.77274e-05
8.03544e-05
0.000182413
0.000164282
4.36954e-05
0.000245765
1.20466e-05
0.000127216
1.02177e-05
0.00012791
1.73234e-05
0.000122611
3.26692e-05
0.000114517
4.10633e-05
0.000112427
5.17991e-05
0.000142958
8.62032e-05
0.0001796
0.000107108
0.000117064
0.000139395
8.51771e-05
0.000213001
0.000145023
0.00048515
0.000254446
0.00236566
3.86001e-05
5.75534e-05
0.000182869
0.000141671
9.40707e-05
5.84037e-05
7.56906e-05
3.70483e-05
7.9743e-05
3.60125e-05
6.16255e-05
2.65239e-05
4.94226e-05
2.66456e-05
5.70808e-05
5.27036e-05
6.89971e-05
7.02484e-05
9.50392e-05
9.39969e-05
0.000138707
0.000101586
0.000133688
9.96363e-05
0.000131779
0.00022102
0.000305282
0.000547606
0.000215472
0.00244735
3.50865e-05
8.0173e-05
0.00017485
0.00016908
4.32267e-05
0.000218977
1.15476e-05
0.000112531
8.54597e-06
0.00011188
1.08496e-05
9.76793e-05
1.96818e-05
0.000110036
3.19844e-05
0.00010628
3.85742e-05
0.000107236
5.11617e-05
0.000116221
8.10242e-05
0.000176009
0.000105937
0.000120786
0.000140366
9.24803e-05
0.000212171
0.000150046
0.000465002
0.000274908
0.00232356
4.87814e-05
7.61204e-05
0.000172443
0.000136121
9.51374e-05
6.17917e-05
6.97213e-05
3.55755e-05
7.34489e-05
3.61742e-05
7.51243e-05
3.79481e-05
5.65682e-05
2.59247e-05
4.78692e-05
2.61292e-05
5.56749e-05
5.43144e-05
6.69146e-05
6.69623e-05
0.000101873
8.68362e-05
0.000138694
9.96709e-05
0.000130557
9.84504e-05
0.000115011
0.000227622
0.000280185
0.0005437
0.000231484
0.00240972
4.66969e-05
9.36374e-05
0.000164419
0.000161206
4.43999e-05
0.000203102
1.20152e-05
9.33892e-05
1.27851e-05
8.75297e-05
1.14491e-05
8.81131e-05
1.43174e-05
8.93503e-05
1.88602e-05
0.000102204
2.83459e-05
9.8048e-05
3.56469e-05
0.000101443
5.12432e-05
0.000124637
8.09355e-05
0.000166761
0.000104712
0.000114788
0.000139317
9.1251e-05
0.000210284
0.000150698
0.000473476
0.000284398
0.00232209
4.6545e-05
0.000113837
0.000137961
0.000141275
9.31185e-05
6.36908e-05
6.55349e-05
4.41649e-05
5.90132e-05
3.6519e-05
7.0454e-05
3.51624e-05
6.7621e-05
3.58704e-05
5.23346e-05
2.28247e-05
4.31589e-05
2.58035e-05
5.20358e-05
5.18669e-05
6.59682e-05
6.72013e-05
9.99574e-05
8.02742e-05
0.000133256
9.78617e-05
0.000122702
0.000102745
0.000104901
0.000236249
0.000261732
0.000523485
0.000246236
0.002401
4.30152e-05
8.88033e-05
0.000177847
0.00013962
4.97605e-05
0.000163769
1.87043e-05
5.69682e-05
1.75908e-05
7.42267e-05
1.455e-05
7.60396e-05
1.28e-05
8.11779e-05
1.35835e-05
8.1755e-05
1.85588e-05
9.10713e-05
2.83735e-05
8.84068e-05
3.37891e-05
9.82764e-05
4.92674e-05
0.000120891
8.01917e-05
0.000165735
0.000103759
0.00011486
0.000138839
8.73201e-05
0.000208898
0.000122568
0.000481604
0.000227343
0.00232204
4.5849e-05
0.000129012
0.000118517
0.000141609
8.62921e-05
6.57478e-05
6.49695e-05
4.94958e-05
5.68548e-05
3.84656e-05
5.61644e-05
3.48984e-05
6.32641e-05
3.26758e-05
5.95628e-05
3.28364e-05
4.82111e-05
1.96988e-05
4.09612e-05
2.55732e-05
4.8842e-05
5.22081e-05
6.44575e-05
6.55221e-05
9.69034e-05
7.10887e-05
0.000127503
9.70955e-05
0.000116405
0.000106647
9.86467e-05
0.000241606
0.000237865
0.000598405
0.000199295
0.00239538
4.22614e-05
8.59137e-05
0.000199068
0.000119395
4.94203e-05
0.000139575
2.28526e-05
5.25644e-05
2.16458e-05
5.0396e-05
1.81362e-05
6.39318e-05
1.49096e-05
6.47834e-05
1.16732e-05
7.10516e-05
1.34669e-05
7.11368e-05
1.92836e-05
7.88589e-05
2.5888e-05
7.53094e-05
3.39372e-05
8.45614e-05
4.7959e-05
0.000116809
7.52122e-05
0.000164238
0.000103396
0.000112404
0.000139071
8.31049e-05
0.000211487
0.0001162
0.00054784
0.000240366
0.00232001
3.95617e-05
0.000151077
8.81591e-05
0.000125308
8.80008e-05
5.63776e-05
6.93824e-05
3.97586e-05
6.08743e-05
4.43943e-05
5.1432e-05
3.85999e-05
4.61753e-05
3.0897e-05
5.61029e-05
2.67999e-05
5.28424e-05
2.33631e-05
4.78912e-05
1.80997e-05
4.19458e-05
2.46078e-05
5.16007e-05
4.47968e-05
7.04956e-05
5.9777e-05
9.47296e-05
7.01759e-05
0.000128569
9.32125e-05
0.000111658
0.000108966
9.59191e-05
0.000245684
0.000205532
0.000565916
0.000210134
0.00239264
4.30897e-05
7.49856e-05
0.000225536
9.97354e-05
3.89525e-05
0.000127459
2.11177e-05
3.72196e-05
3.13743e-05
4.29885e-05
2.79057e-05
4.33506e-05
1.72249e-05
5.86732e-05
1.38527e-05
5.6715e-05
1.139e-05
6.44226e-05
1.45791e-05
5.78881e-05
1.88805e-05
7.46127e-05
2.45607e-05
7.34836e-05
3.52309e-05
8.32984e-05
4.70735e-05
0.000114585
7.36109e-05
0.000159691
9.83475e-05
0.000113443
0.000140105
8.18318e-05
0.000211934
0.000126728
0.000526006
0.000251298
0.00232082
3.47709e-05
0.000174644
5.6866e-05
0.000136697
6.44323e-05
5.46122e-05
6.53495e-05
3.80836e-05
5.78293e-05
3.84411e-05
5.40674e-05
3.89602e-05
4.42326e-05
3.59597e-05
4.17007e-05
2.99423e-05
5.25189e-05
2.60782e-05
4.83653e-05
2.16664e-05
4.75857e-05
1.50464e-05
4.10867e-05
2.3975e-05
5.08899e-05
4.27976e-05
6.93371e-05
5.819e-05
9.26702e-05
6.88518e-05
0.000127075
9.70724e-05
0.000111496
0.000110479
9.1376e-05
0.000248944
0.00019927
0.000557989
0.000172939
0.00239011
3.83912e-05
6.23776e-05
0.00024144
7.85937e-05
4.66376e-05
0.000108002
2.30593e-05
2.46581e-05
2.68311e-05
3.70579e-05
3.75443e-05
4.08907e-05
2.68388e-05
4.21569e-05
1.78271e-05
4.89264e-05
1.27002e-05
5.04239e-05
1.15341e-05
5.71705e-05
1.48366e-05
5.47281e-05
1.72189e-05
7.1662e-05
2.24094e-05
7.07356e-05
3.4567e-05
8.18689e-05
4.71315e-05
0.000110971
6.91745e-05
0.000159124
9.4296e-05
0.000114351
0.000138381
8.09574e-05
0.000212096
0.000136519
0.000602373
0.00019749
0.00232393
2.99472e-05
0.000179559
4.93087e-05
0.000137816
4.997e-05
5.72639e-05
5.9717e-05
3.48264e-05
4.83753e-05
3.46875e-05
4.9597e-05
3.49031e-05
4.88892e-05
3.75317e-05
4.25996e-05
3.01638e-05
3.96978e-05
2.92331e-05
4.94228e-05
2.49435e-05
4.63529e-05
1.98493e-05
4.93082e-05
1.48033e-05
3.95746e-05
2.36197e-05
4.96459e-05
3.79822e-05
6.65302e-05
5.75093e-05
9.14864e-05
6.83664e-05
0.000126576
9.64357e-05
0.000113328
0.00011185
8.86279e-05
0.000249428
0.000168256
0.000609055
0.000188108
0.00238725
3.39509e-05
5.11666e-05
0.000242364
6.98716e-05
6.09605e-05
9.73858e-05
2.4361e-05
2.05447e-05
2.44987e-05
2.57077e-05
2.96808e-05
3.30242e-05
3.46828e-05
3.64948e-05
2.50686e-05
3.95989e-05
1.40515e-05
4.44878e-05
1.13566e-05
4.64916e-05
1.17876e-05
5.50933e-05
1.43934e-05
5.11824e-05
1.62603e-05
6.60801e-05
2.1716e-05
6.97635e-05
3.56189e-05
8.00474e-05
4.73774e-05
0.000107939
6.7136e-05
0.000157723
9.29498e-05
0.00011637
0.000136844
7.98821e-05
0.000211679
0.000140676
0.000569238
0.000206831
0.00230262
2.79543e-05
0.000166817
4.23606e-05
0.000151948
4.02479e-05
6.07298e-05
5.82497e-05
3.42698e-05
4.93064e-05
3.05534e-05
4.17882e-05
3.04912e-05
4.21917e-05
3.14002e-05
4.61558e-05
3.26441e-05
3.92417e-05
3.02883e-05
3.73964e-05
2.92218e-05
4.61134e-05
2.40603e-05
4.44797e-05
1.84096e-05
4.88013e-05
1.36537e-05
3.94952e-05
2.28312e-05
4.90749e-05
3.57166e-05
6.54035e-05
5.75392e-05
8.95989e-05
6.55184e-05
0.000126247
9.43982e-05
0.000113705
0.000111309
8.75086e-05
0.000249368
0.000175077
0.000574526
0.000197482
0.00235019
2.92702e-05
4.22111e-05
0.000247615
5.41945e-05
8.02592e-05
9.14171e-05
2.43221e-05
1.75229e-05
2.28484e-05
2.82146e-05
2.38309e-05
2.26668e-05
2.96182e-05
2.74527e-05
3.3166e-05
3.30772e-05
2.39724e-05
3.56702e-05
1.26883e-05
3.97596e-05
1.15585e-05
4.13454e-05
1.19921e-05
5.24122e-05
1.39615e-05
4.94667e-05
1.55485e-05
5.91673e-05
2.11115e-05
6.44895e-05
3.53838e-05
7.73927e-05
4.74217e-05
0.000104933
6.55096e-05
0.000155533
9.15981e-05
0.00011808
0.000134776
8.03291e-05
0.000211328
0.000153509
0.000545421
0.000222419
0.00227387
2.70928e-05
0.000145547
4.15831e-05
0.00015425
3.88122e-05
5.74959e-05
5.77343e-05
2.99532e-05
4.85341e-05
2.73492e-05
4.23759e-05
2.90701e-05
3.22228e-05
2.7374e-05
3.93237e-05
2.95746e-05
4.1728e-05
2.96911e-05
3.74393e-05
3.02076e-05
3.57051e-05
2.86085e-05
4.30566e-05
2.24125e-05
4.28352e-05
1.6536e-05
4.64152e-05
1.36382e-05
4.16638e-05
2.22314e-05
5.14122e-05
3.40787e-05
6.50192e-05
5.85475e-05
8.9301e-05
6.44026e-05
0.000124637
9.18189e-05
0.000113578
0.000110957
8.62961e-05
0.000251406
0.000175355
0.000564758
0.000173738
0.00232698
3.18765e-05
3.5583e-05
0.000242727
5.01694e-05
8.61574e-05
8.36815e-05
2.34635e-05
1.70052e-05
2.2915e-05
2.30929e-05
2.03366e-05
2.32683e-05
2.39571e-05
2.17295e-05
2.73781e-05
2.50013e-05
3.63288e-05
3.01687e-05
2.41982e-05
3.177e-05
1.34905e-05
3.696e-05
1.10676e-05
4.00017e-05
1.17504e-05
5.07082e-05
1.47955e-05
4.73886e-05
1.55526e-05
5.30133e-05
2.04929e-05
6.2635e-05
3.34797e-05
7.63904e-05
4.82757e-05
0.000100668
6.50174e-05
0.000151212
8.96232e-05
0.000115218
0.000134006
8.07302e-05
0.000211928
0.000163673
0.000611822
0.000184343
0.00225778
2.70715e-05
0.000146983
4.71539e-05
0.000147453
3.85947e-05
5.35307e-05
5.12765e-05
3.10069e-05
4.8401e-05
2.58362e-05
3.71308e-05
2.42162e-05
3.3765e-05
2.63008e-05
2.61233e-05
2.50262e-05
3.61845e-05
2.4671e-05
4.19026e-05
2.55789e-05
3.59802e-05
2.98462e-05
3.40246e-05
2.82586e-05
4.07516e-05
2.1441e-05
4.21944e-05
1.3071e-05
4.44831e-05
1.23885e-05
4.24503e-05
2.17776e-05
5.18444e-05
3.56686e-05
6.38367e-05
5.8231e-05
8.76554e-05
6.33855e-05
0.000125376
9.02263e-05
0.000114551
0.000111005
8.63007e-05
0.000252145
0.000150661
0.00060779
0.000190252
0.00231531
3.86557e-05
2.98288e-05
0.000247346
3.61989e-05
8.95889e-05
7.99092e-05
2.88244e-05
1.90311e-05
2.43342e-05
1.99588e-05
2.05732e-05
1.78429e-05
1.62326e-05
1.9147e-05
2.54405e-05
2.01178e-05
2.55659e-05
2.43551e-05
3.01099e-05
2.81021e-05
2.32832e-05
3.02062e-05
1.47078e-05
3.58834e-05
1.22537e-05
3.93713e-05
1.20739e-05
4.65242e-05
1.38603e-05
4.5153e-05
1.57179e-05
5.36908e-05
2.03243e-05
6.06465e-05
3.37306e-05
7.54148e-05
4.82594e-05
9.80089e-05
6.25526e-05
0.000148908
8.76529e-05
0.000114073
0.000130816
7.42239e-05
0.000212515
0.000168292
0.000586767
0.000196823
0.00224848
2.41362e-05
0.000168817
3.96542e-05
0.000143466
3.39733e-05
4.86266e-05
4.94827e-05
3.07986e-05
5.06793e-05
2.67297e-05
3.53779e-05
2.32544e-05
3.18556e-05
2.01376e-05
3.01793e-05
2.17102e-05
2.4095e-05
2.38043e-05
3.20808e-05
2.37155e-05
4.12325e-05
2.34183e-05
3.53346e-05
2.93787e-05
3.18794e-05
2.68129e-05
3.88477e-05
2.09525e-05
4.15942e-05
1.19976e-05
4.25413e-05
1.13367e-05
4.24309e-05
2.1175e-05
5.05116e-05
3.60652e-05
6.27762e-05
5.8665e-05
8.79553e-05
6.26812e-05
0.000124004
8.93864e-05
0.00011358
0.000108282
8.67393e-05
0.000251144
0.000159185
0.000578052
0.000205217
0.00230289
4.14532e-05
2.71767e-05
0.00024365
2.8444e-05
8.51809e-05
7.84728e-05
3.53848e-05
2.24142e-05
3.36609e-05
1.98496e-05
2.48003e-05
1.96747e-05
1.57119e-05
1.59689e-05
1.6331e-05
1.62262e-05
2.47156e-05
1.99983e-05
2.18116e-05
2.40374e-05
2.74306e-05
2.68564e-05
2.21262e-05
2.83288e-05
1.49518e-05
3.44889e-05
1.17669e-05
3.74267e-05
1.21307e-05
4.47159e-05
1.4141e-05
4.43752e-05
1.33977e-05
5.10823e-05
2.03148e-05
5.85158e-05
3.41247e-05
7.47477e-05
4.81219e-05
9.54279e-05
6.07733e-05
0.000146118
8.67142e-05
0.000112903
0.000128295
7.34972e-05
0.000213556
0.000181854
0.000584224
0.000164998
0.00222883
2.42898e-05
0.000173652
3.32258e-05
0.000123331
3.98517e-05
4.23831e-05
5.39808e-05
3.2763e-05
4.98613e-05
3.06921e-05
3.91422e-05
2.40173e-05
3.1409e-05
2.07695e-05
2.99005e-05
1.71669e-05
2.61048e-05
2.03281e-05
2.21732e-05
2.31433e-05
3.03665e-05
2.28784e-05
3.82446e-05
2.29623e-05
3.33078e-05
2.84843e-05
3.22818e-05
2.57458e-05
3.76359e-05
1.91427e-05
4.09725e-05
1.14238e-05
4.11466e-05
1.12018e-05
4.27525e-05
2.02553e-05
4.93121e-05
3.56618e-05
6.20651e-05
5.89156e-05
8.6762e-05
6.05857e-05
0.000121594
8.94332e-05
0.000112079
0.000106571
8.42924e-05
0.000252142
0.000160469
0.000627631
0.000180973
0.00228234
4.69251e-05
2.98408e-05
0.000242586
2.24148e-05
7.4528e-05
7.48129e-05
4.25657e-05
2.23256e-05
4.27953e-05
2.61185e-05
3.20173e-05
2.15521e-05
2.25536e-05
1.64337e-05
1.64713e-05
1.46294e-05
1.53822e-05
1.56491e-05
2.28622e-05
1.80631e-05
2.0397e-05
2.27282e-05
2.48314e-05
2.54615e-05
2.17678e-05
2.76685e-05
1.46779e-05
3.33975e-05
1.22937e-05
3.56553e-05
1.26463e-05
4.29181e-05
1.42625e-05
4.34071e-05
1.37651e-05
4.95604e-05
2.05461e-05
5.61046e-05
3.45829e-05
7.34625e-05
4.84388e-05
9.38798e-05
5.61524e-05
0.000142913
8.45695e-05
0.00010796
0.000124559
7.50472e-05
0.000213266
0.000181273
0.000619486
0.000179617
0.00221045
2.25681e-05
0.000185804
3.24631e-05
0.000110621
5.27588e-05
4.51696e-05
5.43416e-05
3.85276e-05
4.2098e-05
4.25677e-05
3.43254e-05
2.93018e-05
3.47683e-05
2.35335e-05
2.87364e-05
1.88551e-05
2.74911e-05
1.43925e-05
2.42954e-05
1.93786e-05
2.08256e-05
2.17191e-05
2.86145e-05
2.32849e-05
3.65187e-05
2.24714e-05
3.3569e-05
2.77197e-05
3.12656e-05
2.32238e-05
3.71472e-05
1.80889e-05
4.01412e-05
1.13123e-05
4.11691e-05
1.20567e-05
4.21313e-05
2.04933e-05
4.87753e-05
3.65913e-05
6.16667e-05
5.86766e-05
8.58544e-05
6.20263e-05
0.000119185
8.54658e-05
0.000113091
0.000109144
8.44385e-05
0.000252224
0.000147936
0.000595695
0.000194603
0.00226948
5.03783e-05
2.82391e-05
0.000241456
1.81941e-05
6.86871e-05
8.61621e-05
4.76324e-05
2.32611e-05
4.8156e-05
3.11481e-05
3.90788e-05
2.4839e-05
2.98263e-05
1.83833e-05
2.13854e-05
1.61005e-05
1.51316e-05
1.48758e-05
1.52121e-05
1.49795e-05
2.20834e-05
1.72395e-05
1.98438e-05
2.23956e-05
2.02733e-05
2.39863e-05
2.0264e-05
2.67005e-05
1.37947e-05
3.1238e-05
1.25986e-05
3.469e-05
1.31315e-05
4.21041e-05
1.45556e-05
4.16197e-05
1.2473e-05
4.82678e-05
2.06445e-05
5.52408e-05
3.51885e-05
7.15252e-05
4.7994e-05
9.19735e-05
5.62183e-05
0.000141002
8.02274e-05
0.000107552
0.000123969
7.66314e-05
0.000212706
0.000192636
0.00059586
0.000187786
0.00219633
2.1842e-05
0.000183732
3.38113e-05
9.28358e-05
4.37309e-05
5.1303e-05
5.83497e-05
4.39675e-05
3.85205e-05
4.91338e-05
2.75442e-05
4.05323e-05
3.00417e-05
2.95669e-05
2.96245e-05
2.39872e-05
2.7961e-05
1.81381e-05
2.59772e-05
1.23562e-05
2.27505e-05
1.77317e-05
2.02892e-05
1.83257e-05
2.63463e-05
2.3373e-05
3.36257e-05
2.12011e-05
3.2567e-05
2.66403e-05
3.12922e-05
2.26361e-05
3.58733e-05
1.75304e-05
3.95854e-05
1.18017e-05
4.071e-05
1.25275e-05
4.11779e-05
1.90157e-05
4.80984e-05
3.7266e-05
6.09487e-05
5.88605e-05
8.48864e-05
6.13503e-05
0.000117836
8.79782e-05
0.0001126
0.000109838
8.52306e-05
0.000254574
0.000152562
0.000578629
0.000203375
0.00225171
5.40232e-05
2.89741e-05
0.000236542
2.19113e-05
5.09989e-05
7.41578e-05
5.45628e-05
2.01228e-05
4.27398e-05
3.55272e-05
4.05789e-05
2.48705e-05
3.47543e-05
2.20359e-05
2.85354e-05
1.79192e-05
1.91807e-05
1.65275e-05
1.49407e-05
1.44609e-05
1.21112e-05
1.41325e-05
2.14508e-05
1.6955e-05
1.82374e-05
2.20406e-05
1.97162e-05
2.33295e-05
2.05126e-05
2.61671e-05
1.43258e-05
3.01016e-05
1.28996e-05
3.38541e-05
1.37706e-05
4.1566e-05
1.53128e-05
4.06918e-05
1.29812e-05
4.71009e-05
2.18188e-05
5.37718e-05
3.53036e-05
7.08519e-05
4.87939e-05
9.01357e-05
5.57306e-05
0.000137211
8.04415e-05
0.000107726
0.000123286
7.76487e-05
0.000211582
0.000177125
0.000586193
0.000198923
0.00217742
2.08832e-05
0.000186717
4.33746e-05
9.12272e-05
4.36292e-05
5.79596e-05
5.31787e-05
4.72621e-05
3.81855e-05
4.59815e-05
2.67991e-05
4.85388e-05
2.5517e-05
3.7133e-05
2.78251e-05
2.97287e-05
2.72717e-05
2.46034e-05
2.54653e-05
1.73563e-05
2.37123e-05
1.16756e-05
2.12189e-05
1.72887e-05
1.94028e-05
1.57198e-05
2.50227e-05
2.17947e-05
3.18885e-05
2.12038e-05
3.19027e-05
2.54356e-05
2.9753e-05
2.13606e-05
3.46922e-05
1.72758e-05
3.92391e-05
1.21595e-05
4.0386e-05
1.28651e-05
4.10968e-05
1.93792e-05
4.78937e-05
3.80888e-05
6.03396e-05
5.97534e-05
8.38363e-05
6.13423e-05
0.000117142
8.84804e-05
0.000112287
0.00011102
8.3932e-05
0.000254514
0.000163716
0.000564002
0.000214183
0.00223053
5.4341e-05
3.46421e-05
0.000248941
2.29475e-05
5.53241e-05
7.01861e-05
5.54737e-05
2.01093e-05
3.69877e-05
3.89501e-05
3.29491e-05
2.93857e-05
3.64904e-05
2.49901e-05
3.20617e-05
2.21102e-05
2.66417e-05
1.9273e-05
1.80311e-05
1.6888e-05
1.39707e-05
1.42227e-05
1.1704e-05
1.42518e-05
2.08823e-05
1.68573e-05
1.64418e-05
2.19115e-05
1.97866e-05
2.28562e-05
2.00487e-05
2.52985e-05
1.46162e-05
2.97542e-05
1.27439e-05
3.33466e-05
1.44772e-05
4.06511e-05
1.54813e-05
4.00041e-05
1.37623e-05
4.54338e-05
2.21964e-05
5.32097e-05
3.56608e-05
6.99949e-05
4.93e-05
8.86578e-05
5.59622e-05
0.000127169
7.98133e-05
0.000108162
0.000122599
7.82915e-05
0.000211076
0.000183383
0.000588099
0.000180694
0.00215105
2.13244e-05
0.000181541
6.27892e-05
8.7296e-05
5.14873e-05
7.28906e-05
4.70229e-05
4.90247e-05
3.69549e-05
4.23195e-05
2.59716e-05
4.36174e-05
2.47462e-05
3.95868e-05
2.31156e-05
3.57958e-05
2.63192e-05
2.90789e-05
2.60561e-05
2.39866e-05
2.45638e-05
1.65653e-05
2.18425e-05
1.13922e-05
1.99719e-05
1.47349e-05
1.86012e-05
1.57632e-05
2.37879e-05
2.14374e-05
3.01078e-05
2.12906e-05
3.13439e-05
2.49478e-05
2.88771e-05
2.08687e-05
3.42334e-05
1.7287e-05
3.90056e-05
1.3021e-05
4.01592e-05
1.37171e-05
4.08048e-05
1.9747e-05
4.78686e-05
3.94321e-05
6.00342e-05
6.07075e-05
8.24584e-05
6.10761e-05
0.000121661
8.95546e-05
0.000110938
0.0001116
8.17215e-05
0.000257796
0.000162606
0.000605372
0.000199006
0.00220537
5.13968e-05
3.28397e-05
0.000260365
2.37713e-05
6.53423e-05
5.61294e-05
5.751e-05
1.98423e-05
3.58035e-05
4.03304e-05
2.47664e-05
3.11549e-05
3.01875e-05
2.57718e-05
3.17219e-05
2.35193e-05
3.18394e-05
2.08341e-05
2.51312e-05
1.8953e-05
1.8081e-05
1.67074e-05
1.33449e-05
1.43872e-05
1.10857e-05
1.49658e-05
2.00801e-05
1.62836e-05
1.57171e-05
2.13635e-05
1.78583e-05
2.20037e-05
1.91347e-05
2.47104e-05
1.46576e-05
2.92315e-05
1.26929e-05
3.26282e-05
1.50419e-05
3.98735e-05
1.57155e-05
3.97974e-05
1.43014e-05
4.43401e-05
2.22564e-05
5.28547e-05
3.54859e-05
6.93925e-05
4.9845e-05
8.70536e-05
5.65154e-05
0.00012762
7.97307e-05
0.000108254
0.000120102
7.97574e-05
0.000210555
0.000177241
0.000625042
0.000186976
0.00212863
1.94421e-05
0.000158724
5.9775e-05
8.39278e-05
4.19264e-05
8.56871e-05
4.42305e-05
4.8991e-05
3.75675e-05
3.82466e-05
2.42488e-05
3.80429e-05
2.27984e-05
3.80361e-05
2.17945e-05
3.68576e-05
2.19931e-05
3.44868e-05
2.49475e-05
2.83285e-05
2.62094e-05
2.46372e-05
2.32021e-05
1.63046e-05
1.98946e-05
1.11443e-05
1.94325e-05
1.41221e-05
1.79037e-05
1.54155e-05
2.30206e-05
2.0602e-05
2.88093e-05
2.16714e-05
3.0729e-05
2.42364e-05
2.82675e-05
2.03299e-05
3.38219e-05
1.72144e-05
3.68971e-05
1.3417e-05
4.00859e-05
1.4054e-05
4.10063e-05
2.04652e-05
4.78038e-05
3.98978e-05
5.98816e-05
6.16361e-05
8.0918e-05
6.11108e-05
0.000120317
8.96414e-05
0.000110879
0.000112455
8.05911e-05
0.000259705
0.000154076
0.000594159
0.000207169
0.00217913
5.04819e-05
3.25089e-05
0.000265158
3.51273e-05
6.72757e-05
5.17852e-05
5.77284e-05
1.68398e-05
3.91357e-05
4.39567e-05
1.9801e-05
3.38467e-05
2.22484e-05
2.70326e-05
2.44489e-05
2.39799e-05
3.02744e-05
2.2403e-05
3.13463e-05
1.80431e-05
2.57956e-05
1.9423e-05
1.84442e-05
1.67045e-05
1.28176e-05
1.43718e-05
1.06731e-05
1.44504e-05
1.8853e-05
1.55533e-05
1.57549e-05
2.12765e-05
1.76719e-05
2.11823e-05
1.82729e-05
2.41761e-05
1.44075e-05
2.87993e-05
1.24717e-05
3.17589e-05
1.54539e-05
4.00636e-05
1.61703e-05
3.98315e-05
1.51537e-05
4.41762e-05
2.28156e-05
5.22516e-05
3.62219e-05
6.82177e-05
5.07514e-05
8.49897e-05
5.70237e-05
0.00012667
7.88123e-05
0.000108312
0.000118866
7.89818e-05
0.000211416
0.000187146
0.000616157
0.000197774
0.00210729
1.81577e-05
0.000154566
6.91635e-05
9.82998e-05
4.34659e-05
0.000101537
4.30333e-05
5.06633e-05
4.2223e-05
3.35821e-05
2.52474e-05
3.48622e-05
2.25668e-05
3.26783e-05
2.06362e-05
3.46415e-05
2.02934e-05
3.42724e-05
2.0614e-05
3.28188e-05
2.58131e-05
2.74957e-05
2.49722e-05
2.35285e-05
2.24776e-05
1.65622e-05
1.85173e-05
1.08983e-05
1.86862e-05
1.41166e-05
1.74815e-05
1.52472e-05
2.18853e-05
2.03821e-05
2.74831e-05
2.16021e-05
2.99029e-05
2.35845e-05
2.762e-05
1.83566e-05
3.31093e-05
1.7234e-05
3.70914e-05
1.37672e-05
4.00866e-05
1.44682e-05
4.11412e-05
2.09128e-05
4.80428e-05
3.99238e-05
5.82407e-05
6.25204e-05
7.98582e-05
6.1246e-05
0.000119084
8.92221e-05
0.000110055
0.000114555
7.64152e-05
0.000261628
0.000158128
0.000587866
0.000194785
0.00215421
4.79638e-05
2.85148e-05
0.000269096
3.8638e-05
7.45539e-05
5.0834e-05
5.58366e-05
2.11698e-05
5.05089e-05
4.66642e-05
2.45731e-05
3.68733e-05
1.53725e-05
2.69292e-05
2.08364e-05
2.35095e-05
2.34593e-05
2.29755e-05
2.90954e-05
2.29322e-05
3.1887e-05
1.88305e-05
2.60798e-05
2.05864e-05
1.90801e-05
1.64012e-05
1.21268e-05
1.39474e-05
1.04184e-05
1.44209e-05
1.83059e-05
1.47606e-05
1.45453e-05
2.04364e-05
1.75721e-05
2.03445e-05
1.77959e-05
2.3975e-05
1.39212e-05
2.8703e-05
1.30765e-05
3.13868e-05
1.55673e-05
3.9623e-05
1.5989e-05
3.99593e-05
1.57529e-05
4.36603e-05
2.25037e-05
5.1868e-05
3.68906e-05
6.88961e-05
5.16504e-05
8.43527e-05
5.7678e-05
0.00012583
7.84178e-05
0.000107988
0.000114824
7.11459e-05
0.000214881
0.00019257
0.000660393
0.000176892
0.00208558
1.7097e-05
0.000139011
7.5238e-05
0.00011599
4.86306e-05
0.00010861
4.44228e-05
5.50665e-05
4.86389e-05
3.10917e-05
2.3461e-05
3.07656e-05
2.06738e-05
3.13806e-05
1.86866e-05
2.74289e-05
2.01672e-05
2.91524e-05
1.96719e-05
3.30649e-05
1.97134e-05
3.19766e-05
2.48711e-05
2.8008e-05
2.43272e-05
2.3155e-05
2.19542e-05
1.62978e-05
1.75709e-05
1.08261e-05
1.77395e-05
1.39417e-05
1.66899e-05
1.44227e-05
2.07638e-05
2.02305e-05
2.62967e-05
2.10917e-05
2.84291e-05
2.27506e-05
2.69345e-05
1.78438e-05
3.26142e-05
1.71008e-05
3.64004e-05
1.40895e-05
4.02529e-05
1.49714e-05
4.01977e-05
2.07827e-05
4.87034e-05
3.98119e-05
5.7407e-05
6.30533e-05
7.89497e-05
6.19229e-05
0.000117465
8.86995e-05
0.000109266
0.00011454
7.76727e-05
0.000263699
0.000141177
0.000622203
0.000205606
0.00212804
4.64232e-05
2.6157e-05
0.000277343
4.33367e-05
8.8231e-05
4.93182e-05
5.62422e-05
2.74592e-05
5.69409e-05
4.75514e-05
2.73352e-05
3.87782e-05
1.94577e-05
3.09513e-05
1.47574e-05
2.58595e-05
2.06745e-05
2.20541e-05
2.22664e-05
2.24305e-05
2.56425e-05
2.22101e-05
2.82799e-05
1.94116e-05
2.58045e-05
2.04908e-05
1.88573e-05
1.66593e-05
1.29691e-05
1.3618e-05
1.01036e-05
1.38281e-05
1.73521e-05
1.41883e-05
1.43781e-05
1.92873e-05
1.70368e-05
1.99307e-05
1.79806e-05
2.39959e-05
1.36135e-05
2.83804e-05
1.29071e-05
3.08918e-05
1.5734e-05
3.94103e-05
1.65908e-05
3.97784e-05
1.62965e-05
4.44668e-05
2.27063e-05
5.14523e-05
3.72069e-05
6.87067e-05
5.25786e-05
8.32873e-05
5.83968e-05
0.000124984
7.78835e-05
0.000107815
0.000113415
6.98692e-05
0.000218087
0.000193868
0.000652186
0.00018801
0.00206218
1.56603e-05
0.000122669
8.12881e-05
0.000126334
5.42141e-05
0.00010665
4.18397e-05
5.99842e-05
5.21359e-05
3.45469e-05
2.31993e-05
3.05694e-05
1.96883e-05
2.89994e-05
1.70589e-05
2.82604e-05
1.84397e-05
2.42164e-05
1.86107e-05
2.61048e-05
1.89516e-05
3.10306e-05
1.90588e-05
3.26204e-05
2.42942e-05
2.84895e-05
2.32057e-05
2.31154e-05
2.16498e-05
1.45035e-05
1.7483e-05
1.08676e-05
1.66655e-05
1.40563e-05
1.56844e-05
1.39002e-05
1.94796e-05
1.97452e-05
2.50862e-05
2.10816e-05
2.7774e-05
2.18857e-05
2.66364e-05
1.75361e-05
3.20366e-05
1.6647e-05
3.59117e-05
1.44616e-05
3.91388e-05
1.55153e-05
4.003e-05
1.96766e-05
4.88078e-05
3.957e-05
5.68548e-05
6.32983e-05
7.78688e-05
6.24689e-05
0.000116423
8.76495e-05
0.000108954
0.000112984
7.234e-05
0.000266728
0.000148583
0.000606497
0.000219097
0.0020985
4.68502e-05
2.23145e-05
0.000253296
4.93308e-05
0.000100137
4.63283e-05
5.68124e-05
2.94127e-05
5.63519e-05
4.9826e-05
3.02036e-05
3.72287e-05
2.17683e-05
3.16966e-05
1.77471e-05
2.91043e-05
1.61546e-05
2.07565e-05
1.98086e-05
2.12411e-05
2.07218e-05
2.12465e-05
2.58958e-05
2.20087e-05
2.80651e-05
1.95273e-05
2.53596e-05
1.95429e-05
1.89768e-05
1.64567e-05
1.29664e-05
1.29471e-05
9.80884e-06
1.36761e-05
1.6836e-05
1.35302e-05
1.47002e-05
1.83362e-05
1.65705e-05
1.97402e-05
1.7671e-05
2.39481e-05
1.32953e-05
2.7849e-05
1.25204e-05
3.03336e-05
1.5775e-05
3.92861e-05
1.69345e-05
4.0269e-05
1.6736e-05
4.44113e-05
2.2869e-05
5.13462e-05
3.76818e-05
6.82291e-05
5.34827e-05
8.25693e-05
5.94351e-05
0.000123758
7.65842e-05
0.000107855
0.000110733
6.71325e-05
0.000220174
0.000203533
0.00063799
0.000200183
0.00203837
1.45258e-05
0.000109764
7.97501e-05
0.000136238
5.93496e-05
0.000104515
3.65828e-05
6.3178e-05
5.45315e-05
3.69448e-05
2.18071e-05
3.38605e-05
1.9749e-05
2.87187e-05
1.78694e-05
2.80266e-05
1.71923e-05
2.3881e-05
1.74166e-05
2.20258e-05
1.81539e-05
2.55203e-05
1.8179e-05
2.98983e-05
1.94888e-05
3.22434e-05
2.25213e-05
2.90157e-05
2.33872e-05
2.30861e-05
2.09892e-05
1.46007e-05
1.70203e-05
1.0937e-05
1.58913e-05
1.30262e-05
1.4978e-05
1.31579e-05