/*--------------------------------*- C++ -*----------------------------------*\
| =========                 |                                                 |
| \\      /  F ield         | OpenFOAM: The Open Source CFD Toolbox           |
|  \\    /   O peration     | Version:  2206                                  |
|   \\  /    A nd           | Website:  www.openfoam.com                      |
|    \\/     M anipulation  |                                                 |
\*---------------------------------------------------------------------------*/
FoamFile
{
    version     2.0;
    format      ascii;
    arch        "LSB;label=32;scalar=64";
    class       volVectorField;
    location    "190";
    object      U;
}
// * * * * * * * * * * * * * * * * * * * * * * * * * * * * * * * * * * * * * //

dimensions      [0 1 -1 0 0 0 0];

internalField   nonuniform List<vector> 
93840
(
(0.696214 -0.905665 4.7708e-18)
(0.717536 0.455986 5.03369e-18)
(0.648079 -0.929737 4.97035e-18)
(0.42652 -0.420043 5.05874e-18)
(0.690148 0.483317 6.28331e-18)
(0.632702 -0.865167 2.51869e-18)
(1.041 0.43963 2.50047e-17)
(0.590993 -0.100772 1.42282e-17)
(0.847097 0.443255 1.26355e-18)
(0.673696 -0.723378 1.35498e-18)
(0.841873 -0.104923 3.37114e-18)
(0.704594 0.064193 3.37732e-17)
(0.749179 -0.0976505 2.93051e-17)
(1.00012 0.360927 -7.59763e-17)
(0.742554 -0.598102 -1.19543e-17)
(0.909846 0.0305492 -1.69574e-16)
(0.730226 -0.00794996 1.17957e-17)
(0.463598 0.0626165 -2.10999e-17)
(0.659224 -0.275255 5.372e-17)
(0.963686 0.234664 -8.31143e-17)
(0.776295 -0.559758 4.24776e-18)
(0.804712 -0.0282168 -1.42657e-17)
(0.896021 0.0566416 -1.18133e-16)
(0.719952 0.0118267 4.584e-18)
(0.813231 0.301029 -2.3075e-17)
(0.420811 -0.180574 5.91127e-17)
(0.871417 0.180941 6.47941e-17)
(0.770575 -0.612192 -2.6553e-18)
(0.875355 0.0331626 8.96691e-17)
(0.800776 -0.0132008 -1.33538e-18)
(0.861885 0.064903 -4.91358e-17)
(0.759192 -0.048305 -1.61168e-17)
(0.802749 0.22225 3.57802e-17)
(0.613073 -0.1401 -3.56898e-17)
(0.816294 0.214303 -6.01972e-17)
(0.744617 -0.634665 -1.0504e-17)
(0.807859 -0.0291949 9.10631e-17)
(0.925261 0.0508341 6.84596e-17)
(0.711959 0.00610318 2.35529e-17)
(0.832888 0.0262145 -1.63392e-16)
(0.746911 -0.0341491 -6.62603e-17)
(0.900449 0.203206 -2.18514e-17)
(0.66749 -0.0213294 -1.98989e-17)
(0.817331 0.237445 4.96319e-17)
(0.724845 -0.642164 2.26542e-18)
(0.897373 0.0373605 -7.96899e-18)
(0.799977 -0.0201357 6.66163e-17)
(0.864877 0.0464199 3.82301e-17)
(0.659616 0.0202027 1.06704e-16)
(0.770216 0.0112892 9.94104e-17)
(0.774125 -0.00299662 -4.61978e-17)
(0.768878 0.0243709 3.00068e-17)
(0.725484 -0.0217312 4.46423e-18)
(0.818221 0.239582 -4.38146e-17)
(0.709549 -0.646574 -5.81111e-18)
(0.80173 -0.0266797 1.50555e-16)
(0.951989 0.0509167 -8.51625e-18)
(0.738049 -0.00482747 3.99233e-18)
(0.812621 0.0240523 8.87123e-17)
(0.711987 0.0183407 1.711e-17)
(0.80022 0.020744 1.32748e-17)
(0.745078 0.0194662 -2.46739e-17)
(0.774652 0.0570186 -4.22259e-17)
(0.745122 -0.0273039 -2.00955e-17)
(0.814411 0.25193 2.77294e-17)
(0.696876 -0.649248 -8.83095e-19)
(0.880888 0.0398404 -1.40018e-16)
(0.80002 -0.0212261 1.10432e-16)
(0.899995 0.0353807 -1.85992e-17)
(0.749716 0.0190985 5.35761e-18)
(0.847196 0.0167657 1.19896e-17)
(0.780274 0.0365932 -1.13749e-16)
(0.779647 0.0271722 -1.07055e-17)
(0.77377 0.0462359 -1.32305e-17)
(0.771449 0.0266644 1.94297e-17)
(0.752124 -0.0212415 -8.49957e-18)
(0.814144 0.247411 -3.27779e-17)
(0.686953 -0.650994 -4.09337e-18)
(0.778749 -0.0245499 1.57617e-17)
(0.913298 0.0532435 -1.27318e-16)
(0.750563 -0.0140079 3.66876e-17)
(0.885675 0.0223345 1.10364e-17)
(0.781896 0.0143628 -1.68978e-17)
(0.849111 0.0226161 7.11197e-17)
(0.78632 0.0141323 9.69513e-17)
(0.812936 0.0550033 2.5948e-17)
(0.741725 0.0233793 -4.11428e-18)
(0.775377 0.0509221 -8.31803e-18)
(0.757357 -0.0216527 -1.08073e-17)
(0.810854 0.254409 1.88425e-17)
(0.678194 -0.651969 -2.08302e-18)
(0.852001 0.0385537 -1.62255e-16)
(0.765296 -0.0181385 4.85238e-17)
(0.875668 0.0333488 -6.51876e-17)
(0.772286 0.0126094 1.05046e-16)
(0.858182 0.0181454 1.78936e-17)
(0.79916 0.0328817 1.56234e-17)
(0.838418 0.026052 -4.94035e-17)
(0.803256 0.0421966 -1.1169e-16)
(0.799306 0.0351931 -1.13441e-17)
(0.7802 0.041671 -6.12895e-17)
(0.777582 0.0345753 1.2056e-17)
(0.760806 -0.0177729 -7.33641e-18)
(0.810387 0.251863 -2.77493e-17)
(0.670821 -0.652776 -3.94296e-18)
(0.771921 -0.0211436 -3.32384e-17)
(0.875133 0.0443068 -2.06076e-16)
(0.722832 -0.019317 -4.05522e-17)
(0.875345 0.0184108 -2.2463e-16)
(0.784492 0.0131131 -9.32626e-17)
(0.883607 0.0192367 -5.13114e-17)
(0.823344 0.0172663 -5.51909e-17)
(0.858642 0.0442517 2.37471e-17)
(0.795111 0.0144697 6.29777e-17)
(0.818658 0.054673 6.49174e-17)
(0.763042 0.0268014 3.20434e-18)
(0.77546 0.048038 4.16535e-18)
(0.763953 -0.0183288 -1.0275e-17)
(0.808107 0.256035 1.38494e-17)
(0.66414 -0.652865 -2.39077e-18)
(0.851401 0.0351786 8.89914e-17)
(0.752255 -0.0160395 4.312e-17)
(0.863808 0.0384532 -1.69349e-16)
(0.751732 0.0140284 -7.47999e-17)
(0.867938 0.019743 -9.70655e-17)
(0.82017 0.0265048 -5.97012e-17)
(0.861121 0.0292852 9.07626e-17)
(0.810133 0.0254565 5.74612e-17)
(0.846188 0.0292916 -1.3004e-17)
(0.805208 0.0430825 -1.24735e-16)
(0.801685 0.040731 -5.28065e-17)
(0.780823 0.0368026 -7.69849e-17)
(0.781902 0.0407958 4.74777e-18)
(0.766397 -0.0154642 -9.90599e-18)
(0.808286 0.253893 -2.49469e-17)
(0.658424 -0.653296 -3.71053e-18)
(0.780511 -0.0231022 1.25831e-16)
(0.875002 0.0407424 1.29348e-16)
(0.725917 -0.02127 1.99629e-16)
(0.862489 0.021449 -9.15972e-17)
(0.793735 0.00916444 5.08857e-17)
(0.882168 0.015298 6.57366e-17)
(0.817649 0.0166168 1.0001e-16)
(0.872176 0.0308934 4.52249e-18)
(0.82264 0.0150359 -4.74196e-17)
(0.862904 0.0492904 -8.52953e-18)
(0.809766 0.0210556 7.14038e-17)
(0.822474 0.055951 8.06907e-17)
(0.761926 0.0245277 1.87417e-17)
(0.771916 0.048053 2.74074e-18)
(0.769038 -0.0158586 -1.18104e-17)
(0.805883 0.257227 9.74229e-18)
(0.653116 -0.653154 -2.0928e-18)
(0.85806 0.0390901 -9.03148e-18)
(0.765587 -0.0232518 6.88919e-17)
(0.870066 0.0375147 5.91846e-17)
(0.756536 0.0170843 1.90046e-16)
(0.866835 0.0219613 8.97861e-17)
(0.800723 0.0240766 -5.83614e-17)
(0.857764 0.0318912 -1.91543e-16)
(0.810224 0.0114084 -1.42454e-16)
(0.869578 0.0372511 5.12443e-17)
(0.825103 0.032679 3.8327e-17)
(0.850343 0.0293763 -1.02221e-17)
(0.816289 0.0376586 -1.28957e-16)
(0.804148 0.0401013 -3.18244e-17)
(0.785758 0.0350712 -7.53817e-17)
(0.782887 0.0460363 1.17001e-17)
(0.771212 -0.0134245 -1.01831e-17)
(0.80632 0.255621 -2.286e-17)
(0.648406 -0.653092 -5.07538e-18)
(0.789454 -0.014056 2.255e-17)
(0.876716 0.0489585 2.42168e-17)
(0.736304 -0.0219043 9.17215e-18)
(0.855033 0.0240038 7.26769e-17)
(0.785356 0.00324385 1.80298e-16)
(0.861438 0.0190976 3.46602e-18)
(0.823658 0.0228842 6.70949e-17)
(0.876696 0.0261097 1.03155e-16)
(0.819395 0.0178945 1.46074e-16)
(0.87206 0.0441332 -7.39607e-18)
(0.829594 0.0209829 -1.94067e-17)
(0.868522 0.0543516 -1.21503e-17)
(0.811848 0.022953 4.20422e-17)
(0.817736 0.0604155 1.17723e-16)
(0.765039 0.0212657 -6.21326e-18)
(0.770173 0.0522495 9.56725e-18)
(0.773471 -0.0139001 -1.14828e-17)
(0.804188 0.258196 7.51245e-18)
(0.644059 -0.65289 -3.18971e-18)
(0.863835 0.0376422 -1.12198e-16)
(0.775331 -0.0193494 -1.11504e-17)
(0.864114 0.0312907 -4.2891e-17)
(0.753518 0.0169657 8.22633e-17)
(0.854717 0.0235975 -5.63363e-20)
(0.788182 0.0226545 -9.28041e-17)
(0.86569 0.0299095 1.36487e-17)
(0.806197 0.0184452 1.02523e-17)
(0.865027 0.0323627 -1.77979e-16)
(0.832229 0.0278777 -1.22511e-16)
(0.873454 0.0358358 1.32632e-17)
(0.822262 0.0306416 7.11095e-17)
(0.855528 0.0344121 -5.02047e-18)
(0.811878 0.0339142 -1.11704e-16)
(0.803391 0.0453586 -3.60256e-17)
(0.791371 0.0315527 -7.95055e-17)
(0.785016 0.0499315 1.48272e-17)
(0.775335 -0.0122437 -9.95126e-18)
(0.804612 0.256702 -2.07984e-17)
(0.640141 -0.652503 -6.4805e-18)
(0.801 -0.00334827 -1.51082e-16)
(0.883401 0.048447 -1.9698e-16)
(0.750333 -0.0228094 -9.00588e-17)
(0.851384 0.0232498 -6.2152e-17)
(0.780564 0.000287309 -5.57766e-17)
(0.849813 0.0200946 1.08115e-16)
(0.818853 0.0179112 2.59999e-16)
(0.861481 0.0311118 1.1844e-16)
(0.823133 0.0167954 2.19437e-17)
(0.869437 0.0384186 5.03974e-17)
(0.820661 0.0267975 9.15713e-17)
(0.873865 0.0495692 9.49431e-18)
(0.828008 0.0235965 -4.83299e-17)
(0.866091 0.0569713 -2.90868e-17)
(0.807827 0.0180915 6.64167e-17)
(0.812749 0.0625552 9.10689e-17)
(0.771357 0.0251616 -3.49062e-18)
(0.768921 0.0551215 1.02835e-17)
(0.777155 -0.0131991 -9.69489e-18)
(0.802957 0.258911 4.7362e-18)
(0.63641 -0.652012 -2.38343e-18)
(0.873736 0.0297387 2.5893e-16)
(0.793252 -0.0101276 -3.51814e-17)
(0.871099 0.0275014 -1.04814e-16)
(0.758454 0.0148126 -8.62559e-17)
(0.851872 0.0268492 -1.16432e-16)
(0.789438 0.0212005 -8.2474e-17)
(0.872687 0.032392 -7.9174e-17)
(0.814305 0.0218942 -1.66351e-16)
(0.864334 0.0285384 -2.53679e-19)
(0.81461 0.0306995 3.93019e-18)
(0.869778 0.0332397 -1.05265e-16)
(0.827767 0.0288834 -1.78075e-16)
(0.872046 0.0352153 -1.2309e-17)
(0.826577 0.0259751 4.43775e-17)
(0.846313 0.0365092 2.25723e-17)
(0.820934 0.0351782 -1.32746e-16)
(0.807976 0.0464753 -4.17409e-17)
(0.792243 0.0284236 -7.91374e-17)
(0.785505 0.0526137 1.27626e-17)
(0.778958 -0.0123785 -8.23736e-18)
(0.803012 0.25721 -2.08028e-17)
(0.632962 -0.651587 -5.76111e-18)
(0.812736 -0.0148689 -2.42584e-16)
(0.895517 0.037925 1.87912e-16)
(0.764007 -0.0295875 9.16289e-17)
(0.859825 0.0244503 -9.46837e-17)
(0.78169 0.00670061 5.65478e-17)
(0.853879 0.019945 -1.59033e-17)
(0.829215 0.0247641 -6.41799e-17)
(0.868895 0.0355056 -7.1001e-17)
(0.821041 0.0202792 2.65489e-16)
(0.857028 0.0408752 1.40842e-16)
(0.825573 0.0124414 3.48883e-18)
(0.881255 0.0485064 7.39322e-17)
(0.829376 0.022187 1.3697e-16)
(0.872796 0.0527947 2.55144e-17)
(0.825789 0.0199904 -3.46575e-17)
(0.859644 0.0575652 -1.86604e-17)
(0.81461 0.0226711 3.75899e-17)
(0.816851 0.0685398 9.22371e-17)
(0.775822 0.0246908 3.86644e-18)
(0.766468 0.0562761 -2.30256e-18)
(0.780139 -0.01389 -1.04604e-17)
(0.801018 0.259844 3.33592e-18)
(0.629742 -0.650868 -2.58516e-18)
(0.879071 0.0414193 7.72414e-17)
(0.81407 -0.011848 -2.75143e-16)
(0.878605 0.0302071 2.01805e-16)
(0.770296 0.0115892 9.94642e-17)
(0.864787 0.0289379 -5.19727e-18)
(0.796218 0.0165445 2.50119e-17)
(0.882267 0.0351236 -9.37598e-17)
(0.812061 0.0239146 -9.38086e-17)
(0.857754 0.038866 -2.39628e-17)
(0.814352 0.0391073 -2.4501e-16)
(0.862193 0.03221 2.16661e-17)
(0.817863 0.0378068 -1.49851e-17)
(0.867263 0.0341233 -1.18686e-16)
(0.829105 0.035884 -1.64998e-16)
(0.868881 0.0376134 -6.49423e-19)
(0.83074 0.0290686 1.40563e-17)
(0.854219 0.0393408 3.52051e-17)
(0.81722 0.0315247 -1.03314e-16)
(0.80741 0.0485186 -5.19929e-17)
(0.798147 0.0306539 -4.1218e-17)
(0.786431 0.0511403 9.18849e-18)
(0.781859 -0.0140874 -7.51949e-18)
(0.80075 0.258203 -2.0349e-17)
(0.626677 -0.650285 -2.77503e-18)
(0.815762 -0.00747357 -2.9009e-17)
(0.896598 0.0378693 2.97271e-16)
(0.776056 -0.0225686 -3.86603e-16)
(0.870187 0.0259315 8.73826e-17)
(0.793938 0.00987789 8.87033e-17)
(0.861665 0.0210446 -7.75976e-17)
(0.832918 0.0305474 -1.24363e-16)
(0.87406 0.0327642 -7.68385e-17)
(0.83062 0.0281377 -6.50012e-17)
(0.86212 0.0373403 -1.56574e-16)
(0.8209 0.0198129 2.15201e-16)
(0.866234 0.0470049 1.22525e-16)
(0.82477 0.0259721 3.50973e-17)
(0.871598 0.0496198 -2.16887e-18)
(0.836879 0.0266518 8.91009e-17)
(0.874839 0.0561403 -1.02978e-18)
(0.828287 0.020053 -3.14932e-17)
(0.860434 0.0648589 -3.69467e-17)
(0.819014 0.0264245 4.80941e-17)
(0.815262 0.0633865 3.05537e-17)
(0.779945 0.0309625 -3.0682e-18)
(0.768064 0.0561943 5.26006e-19)
(0.782439 -0.0159902 -1.13615e-17)
(0.798807 0.260654 9.36565e-19)
(0.623773 -0.649417 -5.56651e-18)
(0.875234 0.041278 1.03939e-16)
(0.816406 -0.0198184 -1.23064e-16)
(0.877647 0.0281864 2.6419e-16)
(0.783848 0.00825053 -4.52553e-16)
(0.86653 0.0279136 -1.67477e-16)
(0.797606 0.0144279 -8.71239e-17)
(0.884541 0.041394 -3.08589e-17)
(0.824525 0.0291241 2.01226e-16)
(0.866727 0.041696 2.5964e-17)
(0.815351 0.025441 -6.97421e-17)
(0.863401 0.0391044 -7.41721e-17)
(0.811901 0.0386604 -9.46129e-17)
(0.861087 0.0389242 -1.55511e-17)
(0.818653 0.0416117 -4.89545e-17)
(0.857669 0.034231 -1.66782e-16)
(0.834301 0.0290736 2.75842e-17)
(0.872037 0.0362095 -1.76273e-17)
(0.837336 0.0416537 4.4763e-17)
(0.859409 0.0376651 4.54667e-17)
(0.817377 0.0314261 -1.10754e-16)
(0.808116 0.0509243 -1.64058e-17)
(0.801579 0.0326972 -5.9261e-17)
(0.787938 0.0505773 6.79056e-18)
(0.78406 -0.0167089 -7.37597e-18)
(0.797849 0.259635 -2.05132e-17)
(0.621111 -0.648507 -3.51539e-18)
(0.809795 -0.00564928 3.40108e-16)
(0.887166 0.0562632 1.37689e-16)
(0.779232 -0.0210767 -1.21809e-16)
(0.877103 0.0223647 3.39422e-16)
(0.801189 0.00911887 -9.50311e-17)
(0.861504 0.0203331 4.50539e-18)
(0.832379 0.0331794 1.3409e-16)
(0.868941 0.028699 2.2332e-16)
(0.836653 0.0307748 -6.63745e-17)
(0.873759 0.0322759 -5.60408e-17)
(0.819728 0.0242275 -9.72189e-17)
(0.871595 0.0422677 -1.09428e-16)
(0.817645 0.0173553 1.60716e-16)
(0.866717 0.045218 2.03222e-16)
(0.829628 0.0226359 6.24301e-17)
(0.87264 0.0558434 5.92419e-17)
(0.836464 0.0305592 2.98092e-17)
(0.871926 0.0671403 6.28399e-17)
(0.830274 0.0206739 -6.29857e-18)
(0.86562 0.064167 -3.36814e-17)
(0.818165 0.0256016 5.1432e-17)
(0.818649 0.0626631 3.56528e-17)
(0.782676 0.0337683 2.40628e-17)
(0.771941 0.0579518 4.17983e-18)
(0.784413 -0.0187408 -9.24357e-18)
(0.796518 0.261316 -9.65999e-19)
(0.61865 -0.647744 -5.80151e-18)
(0.870805 0.0465269 -5.80214e-16)
(0.81006 -0.00147318 1.69173e-16)
(0.870202 0.0201819 1.62179e-16)
(0.787311 0.0063123 -5.68294e-17)
(0.863946 0.0251825 4.09852e-16)
(0.794818 0.0110015 3.80025e-16)
(0.880825 0.0353589 2.99272e-16)
(0.824093 0.0352572 7.93636e-17)
(0.880086 0.046781 -4.11592e-17)
(0.819931 0.0254894 1.26755e-16)
(0.863134 0.0432322 4.4802e-18)
(0.811719 0.0285469 -3.96984e-17)
(0.866767 0.0354295 -8.87395e-17)
(0.817487 0.0465448 -2.60732e-16)
(0.859532 0.0413834 -9.30613e-17)
(0.826507 0.0447633 -5.65233e-17)
(0.868631 0.0411225 -1.293e-16)
(0.839406 0.0433861 -1.24517e-16)
(0.86685 0.0343941 -3.81775e-17)
(0.841935 0.0336376 2.16196e-17)
(0.859849 0.0419949 2.44006e-17)
(0.82109 0.034711 -6.97342e-17)
(0.809996 0.0468203 -9.5867e-17)
(0.798012 0.0302688 -4.67321e-17)
(0.789487 0.053318 9.42942e-19)
(0.785836 -0.0198035 -7.09245e-18)
(0.794256 0.261733 -1.86785e-17)
(0.616429 -0.646487 -4.12125e-18)
(0.803263 0.00389892 2.05098e-16)
(0.881954 0.0398669 -5.30529e-16)
(0.779372 -0.0288514 -1.14257e-16)
(0.871248 0.0214117 1.44602e-16)
(0.79502 0.00718228 -1.80884e-16)
(0.851879 0.0193932 -2.47079e-16)
(0.828891 0.030478 -2.73181e-16)
(0.875975 0.0329931 -4.01739e-16)
(0.837867 0.0279659 -1.51574e-16)
(0.866314 0.0297187 2.90705e-16)
(0.824553 0.0299101 3.93582e-17)
(0.865846 0.0328122 -8.42828e-17)
(0.814835 0.0261028 -1.04341e-16)
(0.866082 0.0443278 -2.03842e-16)
(0.822099 0.0163062 2.2295e-16)
(0.856304 0.0496925 2.46357e-16)
(0.829288 0.0314139 8.70439e-17)
(0.873627 0.054429 -4.67862e-17)
(0.840341 0.031513 3.22007e-17)
(0.872217 0.0571863 1.01837e-17)
(0.837403 0.0310467 2.25088e-17)
(0.864175 0.0566055 -5.65408e-19)
(0.822111 0.022296 -1.52785e-17)
(0.819203 0.0635355 4.95605e-17)
(0.785161 0.0329433 3.85636e-17)
(0.774783 0.0617048 -8.48257e-18)
(0.786034 -0.0218018 -9.14256e-18)
(0.792843 0.263634 -5.12017e-18)
(0.614093 -0.645536 -5.79252e-18)
(0.860197 0.0354587 1.40945e-16)
(0.804736 -0.00615377 4.0881e-16)
(0.854651 0.0273452 -2.82659e-16)
(0.780736 0.00349045 -1.78192e-16)
(0.853162 0.0209408 1.57371e-17)
(0.790521 0.0142941 1.35206e-16)
(0.868541 0.0329984 9.26372e-17)
(0.817111 0.0361599 1.23929e-16)
(0.877334 0.0399 3.09927e-16)
(0.823346 0.0362796 2.21794e-16)
(0.874802 0.0391147 3.23026e-18)
(0.813415 0.0300865 1.1484e-16)
(0.862819 0.0407788 4.81092e-17)
(0.814362 0.0414731 -6.09483e-17)
(0.863744 0.0362724 -2.48609e-17)
(0.82509 0.0333044 -4.08025e-17)
(0.857682 0.0456385 1.09122e-17)
(0.828015 0.039047 -9.98585e-18)
(0.86816 0.0437086 -7.62566e-17)
(0.845724 0.0352158 -2.83351e-17)
(0.864203 0.0390457 -4.83547e-17)
(0.84241 0.0322022 2.45171e-17)
(0.85731 0.0464505 1.27922e-17)
(0.828777 0.0278288 -7.68463e-17)
(0.813622 0.0561248 -4.44442e-17)
(0.800832 0.0276411 -3.58235e-17)
(0.787773 0.0567574 -4.10379e-18)
(0.78705 -0.0233669 -7.44876e-18)
(0.789906 0.264291 -1.9018e-17)
(0.612345 -0.644095 -4.47749e-18)
(0.795837 -0.00263953 -3.4496e-16)
(0.874154 0.0434518 -2.47063e-16)
(0.769966 -0.0210712 6.84462e-16)
(0.858949 0.0186468 -1.36438e-16)
(0.781992 0.00679119 -3.61438e-16)
(0.847291 0.0207225 -3.79329e-16)
(0.819833 0.0233704 -3.47406e-16)
(0.871027 0.0343731 -2.96944e-16)
(0.827736 0.0323262 -3.16842e-16)
(0.865642 0.0366689 -4.34928e-16)
(0.833133 0.0318164 -3.44718e-16)
(0.866476 0.0299224 1.44975e-16)
(0.82704 0.025416 -5.35715e-18)
(0.86386 0.0361929 -4.35526e-17)
(0.81829 0.0172298 -1.13041e-16)
(0.854235 0.045625 -1.80982e-16)
(0.82813 0.028838 4.70215e-17)
(0.863211 0.0479511 2.3805e-16)
(0.833049 0.034613 4.49463e-17)
(0.875343 0.0588583 9.06581e-18)
(0.848469 0.0336209 -1.35871e-17)
(0.874348 0.0492002 -2.43621e-18)
(0.847976 0.0295157 2.57727e-17)
(0.86746 0.0607956 -4.42728e-17)
(0.827747 0.021545 1.1021e-17)
(0.822203 0.0607276 1.4007e-17)
(0.786926 0.0318596 4.07962e-17)
(0.776456 0.064817 -4.99127e-18)
(0.787254 -0.0257929 -9.25701e-18)
(0.788996 0.26616 -3.53101e-18)
(0.610463 -0.642969 -5.90526e-18)
(0.852703 0.0426633 3.6545e-16)
(0.807069 -0.000985702 -6.51975e-17)
(0.8435 0.0276054 -5.13476e-16)
(0.770491 -0.00290653 5.79486e-16)
(0.841478 0.0205806 2.3197e-16)
(0.783584 0.0169614 5.52099e-17)
(0.851911 0.0266297 7.45604e-17)
(0.806012 0.0389121 2.64222e-16)
(0.867241 0.0346315 2.21587e-16)
(0.825024 0.0369129 1.73255e-16)
(0.865832 0.0365774 4.05418e-16)
(0.820645 0.0374719 2.66968e-16)
(0.864781 0.0386098 -1.4312e-17)
(0.820258 0.0367387 1.44998e-16)
(0.858113 0.0353996 3.06285e-17)
(0.818052 0.0379549 -7.03634e-17)
(0.851679 0.0365945 1.71182e-19)
(0.831354 0.0347068 -1.95246e-17)
(0.859201 0.0408017 -4.70024e-17)
(0.834248 0.0374806 4.28926e-17)
(0.861738 0.0412822 -5.52175e-17)
(0.853874 0.0343386 -3.51482e-17)
(0.874742 0.0479026 -9.09949e-18)
(0.842705 0.0307676 -6.28108e-19)
(0.86086 0.0515697 6.20459e-18)
(0.825248 0.0270614 -1.24675e-16)
(0.821045 0.0574266 -1.11184e-17)
(0.799888 0.0285271 -2.83534e-17)
(0.789083 0.0617457 -5.1984e-18)
(0.788142 -0.0283306 -8.00263e-18)
(0.784407 0.268497 -2.0917e-17)
(0.609319 -0.641441 -4.77871e-18)
(0.788053 0.00200068 -1.56229e-16)
(0.870823 0.0363106 3.9168e-16)
(0.764007 -0.0162434 2.14051e-16)
(0.842223 0.0179925 -4.63783e-16)
(0.769313 0.00341164 4.16933e-16)
(0.835245 0.0205511 3.66519e-16)
(0.801318 0.019356 4.10005e-16)
(0.84962 0.030727 2.4262e-16)
(0.818092 0.0320261 -1.54818e-16)
(0.863847 0.0395589 -2.35469e-16)
(0.828991 0.0325714 -2.97448e-16)
(0.87186 0.0296846 -5.71414e-16)
(0.831907 0.0354834 -2.80085e-16)
(0.860122 0.0293262 1.0229e-16)
(0.827681 0.026226 1.85786e-17)
(0.864811 0.0372475 -9.03661e-18)
(0.822463 0.0287819 -6.7042e-17)
(0.85526 0.0431045 -9.81992e-17)
(0.832764 0.0271606 6.63759e-18)
(0.8613 0.0509085 2.02166e-16)
(0.837673 0.0367031 5.04176e-17)
(0.871882 0.0574748 -3.4259e-18)
(0.851679 0.0355515 -7.00506e-17)
(0.879238 0.0485162 -5.30056e-18)
(0.842854 0.0233152 -9.05065e-18)
(0.872709 0.0593848 -3.74838e-17)
(0.825039 0.0245538 -2.71243e-17)
(0.823472 0.0627341 1.36655e-17)
(0.789447 0.0325003 4.38232e-17)
(0.778558 0.069457 -4.67811e-18)
(0.788337 -0.031364 -9.09703e-18)
(0.783806 0.270998 -4.12297e-18)
(0.607658 -0.640119 -1.13848e-17)
(0.848205 0.0383204 2.53742e-17)
(0.805108 -0.0119929 -4.69799e-16)
(0.829135 0.0269924 2.46348e-16)
(0.753669 -0.0039824 1.53125e-16)
(0.828305 0.0165499 -7.89435e-16)
(0.768998 0.0237769 -6.06486e-16)
(0.833179 0.0221348 -3.49318e-16)
(0.792246 0.0343219 -4.08637e-16)
(0.851693 0.0390154 -3.0731e-16)
(0.808231 0.0380434 8.16928e-17)
(0.858951 0.0349354 1.88398e-16)
(0.823277 0.0334729 7.52443e-17)
(0.876773 0.0349011 5.29841e-16)
(0.828188 0.0325923 8.46432e-17)
(0.8642 0.0346069 7.62162e-18)
(0.825487 0.0328934 8.59005e-17)
(0.85897 0.0337279 3.2278e-17)
(0.827163 0.0300918 -6.11066e-17)
(0.860097 0.043151 -7.17006e-17)
(0.8348 0.0328648 -3.09229e-17)
(0.853323 0.0367131 -1.33948e-16)
(0.841102 0.0372471 4.99732e-17)
(0.86953 0.044568 -7.15777e-18)
(0.851398 0.03438 -5.09997e-17)
(0.883673 0.0475575 9.9498e-19)
(0.843017 0.0349198 1.44927e-17)
(0.865817 0.0477189 -5.61008e-19)
(0.827757 0.0228818 -6.81049e-17)
(0.821828 0.0562813 -3.41849e-17)
(0.795159 0.0273027 -3.86258e-17)
(0.792377 0.0681524 -1.00662e-17)
(0.788826 -0.0343135 -3.71075e-18)
(0.778432 0.272415 -2.00136e-17)
(0.606106 -0.638173 -1.98876e-18)
(0.787958 -0.00170223 -6.44211e-17)
(0.86768 0.0487612 1.92662e-16)
(0.763394 -0.0138827 -6.63781e-16)
(0.825093 0.0186303 5.76078e-17)
(0.756938 0.00141169 5.78087e-16)
(0.819564 0.0257572 3.79008e-16)
(0.787981 0.0181258 2.67049e-16)
(0.831154 0.0267988 2.40442e-16)
(0.803162 0.0310249 4.61951e-16)
(0.84646 0.0330812 3.98182e-16)
(0.821004 0.0345639 -2.21466e-17)
(0.862796 0.0383436 -2.25582e-16)
(0.820061 0.0362504 -8.63523e-17)
(0.871221 0.0305001 -4.27453e-16)
(0.835402 0.032909 -3.88947e-16)
(0.867074 0.0299864 8.81176e-17)
(0.829329 0.0272253 4.91423e-17)
(0.863571 0.0369662 -4.08495e-18)
(0.828815 0.0255454 -4.65728e-17)
(0.85742 0.044758 -1.02835e-16)
(0.83718 0.0283436 -4.78145e-17)
(0.861708 0.0489288 1.60629e-16)
(0.842517 0.0360483 5.52256e-17)
(0.873672 0.0585523 -1.90936e-18)
(0.846457 0.0339018 -6.32157e-17)
(0.887065 0.0457353 -4.20581e-18)
(0.844153 0.0290942 -1.18311e-18)
(0.872916 0.0621474 -2.55367e-17)
(0.826559 0.0300145 -5.42425e-17)
(0.828298 0.0621406 2.62401e-17)
(0.789308 0.0292778 3.41164e-17)
(0.784107 0.0752476 -7.10529e-19)
(0.785961 -0.0362533 -1.28095e-17)
(0.811051 0.244562 -4.15363e-18)
(0.603866 -0.638449 -7.63628e-18)
(0.842922 0.0414147 2.50456e-17)
(0.807212 -0.00136257 7.16685e-17)
(0.823077 0.0241504 3.50287e-16)
(0.7396 -0.00246394 -5.18689e-16)
(0.822613 0.0151237 -1.14431e-16)
(0.757431 0.021226 3.15934e-16)
(0.823644 0.0147145 1.20075e-16)
(0.783704 0.0311541 -6.25578e-17)
(0.83412 0.0388748 -1.40931e-16)
(0.801547 0.0398521 -3.39063e-16)
(0.84896 0.0410298 -3.28364e-16)
(0.808617 0.034354 9.83788e-17)
(0.865844 0.0363235 1.78238e-16)
(0.814838 0.0326724 1.00978e-16)
(0.866838 0.0337236 2.83016e-16)
(0.828809 0.0317019 2.55297e-16)
(0.869987 0.0303492 6.66954e-17)
(0.827776 0.0275544 3.99473e-17)
(0.863917 0.034706 5.43925e-17)
(0.827561 0.0287826 -3.64413e-17)
(0.857909 0.0410594 -4.40191e-17)
(0.83857 0.0343298 -4.79061e-17)
(0.859294 0.0417734 6.49175e-17)
(0.844384 0.036054 6.56973e-17)
(0.874453 0.0474446 8.66546e-18)
(0.844331 0.0345674 -1.82601e-17)
(0.890547 0.0434643 2.12536e-18)
(0.849813 0.0298494 -2.48229e-18)
(0.859184 0.0403303 3.63156e-17)
(0.831272 0.0182696 -8.33169e-17)
(0.826597 0.0575773 -1.49017e-17)
(0.79189 0.0268411 -4.85815e-17)
(0.796326 0.0741965 -6.45184e-18)
(0.758526 -0.0194826 -2.21827e-18)
(0.807099 0.250011 -1.93494e-17)
(0.602399 -0.637257 9.30592e-19)
(0.786595 -0.00150276 -7.61357e-17)
(0.872667 0.043042 4.53648e-17)
(0.764592 -0.0234988 -7.00284e-17)
(0.809741 0.0199277 4.91601e-16)
(0.757497 -4.14857e-05 -3.29637e-16)
(0.813874 0.0257827 -3.57854e-16)
(0.787491 0.0175675 -2.33935e-16)
(0.828615 0.0264989 -1.43138e-16)
(0.803376 0.0317661 -6.00351e-17)
(0.841352 0.0331596 2.20514e-17)
(0.805852 0.0320434 3.54298e-16)
(0.849741 0.0356852 3.70416e-16)
(0.812714 0.0365005 1.36516e-16)
(0.863131 0.0358379 -1.12068e-16)
(0.817653 0.0365887 -1.45066e-16)
(0.869932 0.0330358 -6.0739e-16)
(0.831664 0.0321488 -4.68754e-16)
(0.87378 0.0303114 6.72421e-17)
(0.826973 0.0265073 8.12581e-17)
(0.866714 0.0365466 -2.5275e-17)
(0.832262 0.0265965 -2.40898e-17)
(0.856527 0.0469329 -1.02121e-16)
(0.836487 0.029005 -2.97663e-17)
(0.8598 0.047061 8.37757e-17)
(0.847202 0.0356564 7.39436e-17)
(0.877361 0.0503471 9.14788e-18)
(0.842687 0.0364771 -1.29898e-16)
(0.881975 0.0481217 1.87356e-18)
(0.853688 0.0275912 -2.12893e-18)
(0.873773 0.0695927 -6.65061e-17)
(0.832067 0.0276835 -2.30717e-17)
(0.832723 0.0595891 1.29088e-17)
(0.788049 0.0283284 3.53464e-17)
(0.797335 0.074253 -5.54996e-18)
(0.763295 -0.0182909 -8.04463e-18)
(0.799721 0.253209 -4.94455e-18)
(0.60083 -0.636371 -6.33618e-18)
(0.844745 0.0440061 1.98402e-16)
(0.817832 -0.0110006 -3.83191e-17)
(0.834968 0.0318267 1.6582e-16)
(0.741188 0.00474192 -1.38411e-16)
(0.829554 0.0104733 4.94035e-16)
(0.760651 0.022458 2.96363e-16)
(0.825711 0.0154982 -4.20281e-17)
(0.789259 0.0315404 1.99734e-19)
(0.831836 0.0343003 1.13937e-16)
(0.797113 0.0358856 1.85119e-17)
(0.844268 0.0427926 -3.9312e-17)
(0.803251 0.0351866 -3.32221e-16)
(0.856254 0.0420986 -3.47626e-16)
(0.805436 0.0336182 -1.06728e-16)
(0.861967 0.0338896 1.73545e-16)
(0.820338 0.0315651 3.58725e-17)
(0.870505 0.0325462 1.01613e-16)
(0.824744 0.0344801 3.60312e-16)
(0.877385 0.0329224 1.20881e-16)
(0.826894 0.033676 9.96251e-17)
(0.867045 0.0367525 8.31955e-17)
(0.833151 0.0259201 -1.56565e-17)
(0.860743 0.0395296 -4.32862e-17)
(0.840304 0.0335299 -3.00814e-17)
(0.856224 0.0422247 -4.48984e-17)
(0.851091 0.0352091 7.67702e-17)
(0.881057 0.0488751 1.48813e-17)
(0.843226 0.0365339 -4.89419e-17)
(0.879363 0.0454676 -9.65935e-18)
(0.85861 0.0292137 -8.53416e-18)
(0.864289 0.0481507 3.52631e-17)
(0.827997 0.026257 -8.62973e-17)
(0.833597 0.0593972 1.56605e-17)
(0.787651 0.0254618 -5.34202e-17)
(0.802743 0.0683007 -5.97871e-19)
(0.76895 -0.0228776 -6.24316e-18)
(0.797413 0.258862 -1.98551e-17)
(0.59943 -0.63496 -5.08836e-18)
(0.791219 -0.00248101 -5.35092e-17)
(0.878073 0.0530128 1.21841e-16)
(0.780838 -0.00746963 2.29125e-16)
(0.811517 0.0181427 1.47228e-16)
(0.775825 -0.008904 -1.36062e-16)
(0.815371 0.02477 1.60561e-16)
(0.799762 0.0190059 2.32136e-16)
(0.838288 0.027907 1.46667e-16)
(0.811443 0.0162639 3.40375e-17)
(0.843176 0.0339609 -3.31799e-17)
(0.807466 0.0281783 -6.60924e-17)
(0.852888 0.0332994 -2.05651e-17)
(0.805301 0.031298 3.44682e-16)
(0.851996 0.0353874 4.89164e-16)
(0.806454 0.0355699 2.15483e-16)
(0.861074 0.0361008 -6.98659e-17)
(0.824036 0.0365085 -9.67809e-17)
(0.875101 0.0315813 -1.43679e-16)
(0.826519 0.030416 -3.03238e-16)
(0.875199 0.0312595 5.93106e-17)
(0.830887 0.0256775 6.8002e-17)
(0.870735 0.034413 -3.10266e-17)
(0.835524 0.0254431 -1.84197e-17)
(0.85913 0.0451515 -8.32961e-17)
(0.839663 0.0281846 -8.67575e-17)
(0.862878 0.045979 9.90319e-17)
(0.850871 0.035705 7.43969e-17)
(0.879903 0.0470639 2.34606e-17)
(0.845208 0.0339831 -6.03441e-17)
(0.879551 0.0483168 9.21482e-18)
(0.852056 0.0267009 4.87551e-18)
(0.873753 0.054382 6.35143e-18)
(0.829203 0.0276129 -3.74692e-17)
(0.835806 0.0572619 -2.42181e-18)
(0.780201 0.0281611 -1.20756e-18)
(0.796072 0.0755605 -1.35124e-17)
(0.772571 -0.0271774 -2.87285e-18)
(0.790124 0.259749 -6.13003e-18)
(0.597733 -0.63362 -1.70258e-18)
(0.849127 0.0449155 1.05416e-16)
(0.824292 0.00252713 -1.89371e-16)
(0.841959 0.021187 -1.61412e-16)
(0.748108 -0.00392482 2.95239e-17)
(0.845444 0.0118583 7.84539e-17)
(0.769894 0.0241043 -3.29241e-16)
(0.837705 0.016769 -4.02485e-16)
(0.800879 0.0328085 -1.66683e-16)
(0.837809 0.0280591 -2.05155e-16)
(0.809903 0.0352739 -9.17636e-17)
(0.846591 0.0333916 -1.87466e-17)
(0.804195 0.0387316 6.15397e-18)
(0.843416 0.0431675 -2.89252e-18)
(0.801243 0.0361013 -6.84522e-17)
(0.853803 0.0431047 -4.35416e-16)
(0.807615 0.0336188 -1.55455e-16)
(0.856423 0.0338253 2.03814e-16)
(0.820653 0.0321123 4.31562e-17)
(0.877306 0.0314506 -1.33185e-16)
(0.823919 0.0332485 3.075e-16)
(0.879742 0.0305437 1.30511e-16)
(0.830954 0.0266532 8.21233e-17)
(0.866195 0.0395111 9.63144e-17)
(0.837587 0.0260872 -1.29189e-17)
(0.855943 0.0395342 -5.41098e-17)
(0.843324 0.0302505 -5.76024e-17)
(0.859307 0.0468866 3.21341e-17)
(0.845774 0.0376915 8.48348e-17)
(0.880147 0.0456683 5.22152e-18)
(0.848848 0.0345902 -5.90836e-17)
(0.882234 0.0484793 -1.49069e-18)
(0.859805 0.0324717 9.36832e-18)
(0.873693 0.054608 1.53186e-17)
(0.819234 0.0266995 -7.69908e-17)
(0.837267 0.0615701 4.52301e-17)
(0.784065 0.0299572 -2.02275e-17)
(0.79674 0.072437 -2.5048e-18)
(0.771365 -0.0283536 -6.96012e-18)
(0.822697 0.236456 -2.54365e-17)
(0.595659 -0.633903 -1.39747e-17)
(0.802623 0.00360314 -1.52104e-16)
(0.883197 0.047056 -6.29349e-17)
(0.800272 -0.0109301 -4.32638e-16)
(0.820267 0.0211765 -1.51838e-16)
(0.795883 -0.0081722 -2.76157e-16)
(0.81967 0.0233806 -1.02004e-16)
(0.817239 0.0190985 -1.76097e-16)
(0.843416 0.0295358 -1.73973e-16)
(0.821088 0.0166206 1.6233e-17)
(0.848508 0.0375204 5.05696e-17)
(0.810305 0.0235162 1.30312e-17)
(0.854509 0.0389101 -1.25875e-19)
(0.80718 0.02773 -5.46517e-17)
(0.853745 0.0328824 6.58554e-17)
(0.802869 0.0318972 2.19926e-16)
(0.843755 0.0338511 5.96874e-16)
(0.809799 0.0372989 2.4042e-16)
(0.861746 0.0346845 -1.81458e-16)
(0.824819 0.0381377 -1.85693e-16)
(0.870448 0.0297667 3.92478e-17)
(0.826027 0.0329258 -5.53155e-16)
(0.873955 0.0327829 5.61259e-17)
(0.833575 0.026415 8.86152e-17)
(0.865804 0.0389635 -3.13418e-17)
(0.841255 0.0263076 -1.2574e-17)
(0.85779 0.0453482 -8.37407e-17)
(0.844735 0.0296476 -6.65311e-17)
(0.863648 0.0466727 5.14571e-17)
(0.844845 0.0356027 9.58483e-17)
(0.876824 0.0467233 1.05058e-17)
(0.850993 0.0328601 -4.86119e-17)
(0.882626 0.0466504 -6.43772e-18)
(0.854801 0.0260353 5.52796e-18)
(0.879138 0.0538828 1.9151e-17)
(0.825951 0.0295298 -3.40281e-17)
(0.841421 0.0611509 3.30221e-17)
(0.780666 0.0294651 6.22219e-18)
(0.793078 0.0787987 -1.13803e-17)
(0.748562 -0.0129835 -4.83445e-18)
(0.815832 0.240847 -3.02366e-18)
(0.594163 -0.632617 -1.81915e-18)
(0.855495 0.0427846 -3.95969e-17)
(0.831956 0.0215073 -6.9332e-17)
(0.855834 0.0181082 -4.29867e-17)
(0.765831 0.00200118 -3.12321e-16)
(0.8578 0.0111683 -2.31537e-16)
(0.777153 0.025445 -2.21091e-16)
(0.853577 0.0154385 1.52777e-16)
(0.808347 0.034623 4.24549e-16)
(0.849505 0.0200415 1.87898e-16)
(0.816563 0.0242698 -5.90878e-17)
(0.854137 0.0331342 -1.79356e-16)
(0.810841 0.0326339 -1.65123e-16)