/*--------------------------------*- C++ -*----------------------------------*\
| =========                 |                                                 |
| \\      /  F ield         | OpenFOAM: The Open Source CFD Toolbox           |
|  \\    /   O peration     | Version:  2206                                  |
|   \\  /    A nd           | Website:  www.openfoam.com                      |
|    \\/     M anipulation  |                                                 |
\*---------------------------------------------------------------------------*/
FoamFile
{
    version     2.0;
    format      ascii;
    arch        "LSB;label=32;scalar=64";
    class       volVectorField;
    location    "190";
    object      UMean;
}
// * * * * * * * * * * * * * * * * * * * * * * * * * * * * * * * * * * * * * //

dimensions      [0 1 -1 0 0 0 0];

internalField   nonuniform List<vector> 
93840
(
(0.71302 -0.786397 7.0826e-18)
(0.780618 0.387245 8.46567e-18)
(0.643708 -0.767876 6.90185e-18)
(0.620151 -0.348236 -2.02878e-19)
(0.783735 0.369007 6.62395e-18)
(0.604654 -0.693525 8.49759e-18)
(1.05791 0.368419 5.26966e-17)
(0.683929 -0.115933 7.4473e-18)
(0.835425 0.344936 4.07884e-18)
(0.649554 -0.570699 1.51307e-17)
(0.877236 -0.096385 -1.61479e-17)
(0.91528 0.0771645 8.48727e-17)
(0.78503 -0.0970942 1.71073e-17)
(0.919115 0.285874 -5.45675e-17)
(0.680448 -0.437113 -8.24449e-18)
(0.875017 0.0403815 -1.58381e-16)
(0.80622 -0.0472462 -4.18742e-17)
(0.695313 0.0850179 3.77402e-17)
(0.714426 -0.208759 2.0598e-17)
(0.902705 0.168387 -7.20439e-17)
(0.704352 -0.350834 4.32143e-18)
(0.80262 -0.0192594 -1.55464e-17)
(0.900803 0.076418 -1.97018e-16)
(0.801605 -0.0256388 -5.90581e-17)
(0.942933 0.241969 4.25295e-17)
(0.606359 -0.109407 5.82096e-18)
(0.870146 0.111877 5.43379e-17)
(0.725828 -0.34419 8.43798e-19)
(0.822589 0.0383633 6.34867e-17)
(0.789334 -0.0454601 1.74291e-17)
(0.917512 0.0872801 -1.46361e-16)
(0.830472 -0.0586588 -9.01844e-17)
(0.899667 0.156292 9.47385e-17)
(0.726515 -0.0608403 -1.49266e-17)
(0.855178 0.128977 -3.99021e-17)
(0.738361 -0.332698 -1.16642e-17)
(0.798322 -0.0171965 7.33826e-17)
(0.863809 0.0756649 9.17946e-17)
(0.783838 -0.0228818 1.21944e-17)
(0.870508 0.056867 -1.49517e-16)
(0.780556 -0.0532004 -1.87144e-16)
(0.936953 0.115915 -4.60783e-17)
(0.743462 -0.00627381 -4.81994e-17)
(0.842548 0.136654 4.00624e-17)
(0.727564 -0.332495 5.80261e-18)
(0.83507 0.0395319 -8.05754e-18)
(0.809496 -0.0283616 7.91958e-17)
(0.879096 0.0802303 1.01208e-16)
(0.761395 -0.00975494 1.48099e-16)
(0.878021 0.0664363 9.59619e-17)
(0.790603 -0.00400727 -2.9752e-17)
(0.850392 0.0267994 9.9978e-17)
(0.776283 -0.0275833 1.62121e-17)
(0.852603 0.130901 -2.85767e-17)
(0.743266 -0.318098 -2.26775e-18)
(0.803618 -0.0157512 1.30808e-16)
(0.871507 0.053791 5.00332e-18)
(0.787331 -0.0192389 5.46465e-17)
(0.844857 0.0516848 8.4574e-17)
(0.766844 -0.0286275 6.86238e-17)
(0.882814 0.0362937 5.02986e-17)
(0.774934 0.0195048 -7.56136e-17)
(0.852702 0.0549718 -5.36383e-17)
(0.789701 -0.0145954 -4.97207e-17)
(0.841262 0.136215 2.13044e-17)
(0.720687 -0.330016 2.94116e-18)
(0.840911 0.0394978 -1.13998e-16)
(0.804111 -0.0167705 1.23268e-16)
(0.882766 0.0715009 -8.17591e-18)
(0.809313 -0.00224939 2.44532e-17)
(0.896819 0.0631382 3.78022e-17)
(0.784993 0.0153513 -8.25766e-17)
(0.860059 0.0235096 -1.32098e-17)
(0.80111 0.0171875 -6.15853e-17)
(0.832698 0.030198 7.60969e-17)
(0.797414 -0.0163884 6.01545e-18)
(0.84767 0.132437 -2.28421e-17)
(0.725595 -0.306479 -2.87492e-19)
(0.786975 -0.0147158 -1.70476e-17)
(0.861344 0.0533393 -1.63885e-16)
(0.79051 -0.0119993 9.45972e-17)
(0.87495 0.0430612 2.37312e-17)
(0.820033 -0.0117433 1.37487e-17)
(0.895757 0.0383584 3.00684e-17)
(0.809728 0.0141435 1.28431e-16)
(0.86843 0.0346785 1.12646e-16)
(0.793367 0.015561 -4.60139e-17)
(0.842533 0.0464706 -4.20053e-17)
(0.802135 -0.0110423 -4.06121e-17)
(0.843581 0.137376 1.33903e-17)
(0.716703 -0.321821 1.90945e-18)
(0.832756 0.0391885 -1.21812e-16)
(0.782213 -0.0144852 -1.51734e-17)
(0.868783 0.064545 -1.4574e-16)
(0.793213 0.00247833 6.12774e-17)
(0.870149 0.0443585 1.49045e-17)
(0.796679 0.0144689 5.55004e-18)
(0.882308 0.028999 -5.35045e-17)
(0.813248 0.0291078 -8.77545e-17)
(0.841612 0.0248302 -3.97051e-18)
(0.811277 0.0154163 -7.12679e-17)
(0.834561 0.0337393 6.11867e-17)
(0.798757 -0.0116727 9.19148e-18)
(0.848585 0.130012 -1.9536e-17)
(0.722216 -0.297273 -2.17863e-19)
(0.792288 -0.0139914 1.86702e-17)
(0.848201 0.0522021 -1.2389e-16)
(0.773612 -0.00740661 2.74383e-17)
(0.849016 0.0422793 -2.12811e-16)
(0.804206 -0.00270263 -1.25495e-16)
(0.874137 0.0365352 -8.30688e-17)
(0.815864 0.0123766 -7.30539e-17)
(0.88622 0.0360086 -2.99246e-17)
(0.823914 0.0181936 6.2517e-17)
(0.863259 0.0399311 1.26393e-16)
(0.799555 0.0150249 -3.33324e-17)
(0.841808 0.0453604 -3.00753e-17)
(0.80424 -0.0078691 -4.05197e-17)
(0.844371 0.134841 9.42453e-18)
(0.712947 -0.314907 2.31112e-18)
(0.837296 0.0389328 2.42279e-17)
(0.783629 -0.0125969 2.00936e-17)
(0.849111 0.0590809 -1.39615e-16)
(0.766061 0.00329965 2.05578e-17)
(0.84519 0.0391842 -7.30099e-17)
(0.784895 0.0158376 -9.90051e-18)
(0.859419 0.029365 9.693e-17)
(0.799559 0.0276029 4.29616e-17)
(0.86407 0.0231517 -2.22324e-17)
(0.822386 0.0250014 -8.24478e-17)
(0.845815 0.0262012 1.33103e-19)
(0.812467 0.0152405 -7.4593e-17)
(0.835006 0.0340047 4.95347e-17)
(0.801963 -0.0083142 8.51635e-18)
(0.848598 0.128442 -1.74668e-17)
(0.719325 -0.289797 -1.46584e-20)
(0.798701 -0.0134694 9.81529e-17)
(0.849857 0.0504784 6.77394e-17)
(0.775045 -0.00471878 3.55411e-17)
(0.836328 0.0420464 -1.69295e-16)
(0.792459 0.00138402 2.43222e-17)
(0.849047 0.0359451 1.00048e-16)
(0.797498 0.01131 1.185e-16)
(0.860364 0.0361597 1.85643e-18)
(0.816559 0.0155891 -5.11271e-17)
(0.878109 0.0368959 -3.97782e-17)
(0.829041 0.0178524 3.40256e-17)
(0.864382 0.0432057 1.25442e-16)
(0.803675 0.0151318 -2.42343e-17)
(0.840705 0.0439946 -2.3883e-17)
(0.804807 -0.00471402 -4.07051e-17)
(0.844086 0.132845 5.4465e-18)
(0.711774 -0.308508 2.8712e-18)
(0.844521 0.0380026 -5.74084e-17)
(0.789729 -0.0107497 1.06987e-16)
(0.850175 0.054448 1.03285e-16)
(0.777432 0.004575 1.74269e-16)
(0.84596 0.038965 4.96355e-17)
(0.786998 0.017539 -8.26456e-17)
(0.847362 0.0297845 -2.40842e-16)
(0.788749 0.0258279 -1.29733e-16)
(0.849123 0.0269405 5.6584e-17)
(0.803959 0.028832 5.11969e-17)
(0.861271 0.0221136 -6.32912e-18)
(0.827528 0.0244705 -7.16693e-17)
(0.846854 0.0272013 6.71317e-18)
(0.812606 0.0163368 -7.54541e-17)
(0.835183 0.0341749 4.23613e-17)
(0.804448 -0.0059638 8.7367e-18)
(0.847901 0.127282 -1.58303e-17)
(0.717432 -0.283457 -7.86957e-19)
(0.808169 -0.0127714 2.78796e-17)
(0.856905 0.0492275 -5.72546e-17)
(0.789279 -0.00183452 6.83465e-17)
(0.843373 0.0427027 1.29677e-16)
(0.806948 0.00530755 1.65955e-16)
(0.854876 0.0364347 -2.67519e-17)
(0.807216 0.0117912 1.16579e-17)
(0.850421 0.0368672 4.88892e-17)
(0.800904 0.0143046 1.41034e-16)
(0.853984 0.035651 3.34273e-17)
(0.816332 0.0157334 -4.12344e-17)
(0.873928 0.0369158 -4.65272e-17)
(0.832411 0.0173096 6.16694e-18)
(0.864168 0.0439943 1.25684e-16)
(0.807253 0.0161335 -2.02324e-17)
(0.838828 0.0431048 -2.30379e-17)
(0.806347 -0.00273754 -3.93573e-17)
(0.843557 0.131259 2.68965e-18)
(0.710954 -0.302667 2.557e-18)
(0.84589 0.0371738 -6.23128e-17)
(0.799543 -0.00896049 2.55223e-17)
(0.853792 0.0499319 -5.04691e-17)
(0.788858 0.00574926 1.27663e-17)
(0.846984 0.0378489 -1.87179e-17)
(0.794112 0.0186364 -7.73669e-17)
(0.848848 0.0306349 6.17245e-17)
(0.795753 0.0258293 -5.42238e-18)
(0.846252 0.028539 -2.1638e-16)
(0.79237 0.0274269 -1.70964e-16)
(0.845825 0.0261042 2.81179e-17)
(0.806222 0.0300785 5.35001e-17)
(0.857932 0.023747 8.68484e-19)
(0.831768 0.0241691 -6.22199e-17)
(0.848564 0.028049 1.27587e-17)
(0.814013 0.0162405 -7.56047e-17)
(0.833706 0.034367 3.91059e-17)
(0.80666 -0.00436351 7.24217e-18)
(0.846986 0.126427 -1.46059e-17)
(0.715243 -0.277783 -1.46295e-18)
(0.813511 -0.0125901 -9.3756e-17)
(0.858818 0.0476943 -9.2999e-17)
(0.799198 0.00115402 9.51382e-18)
(0.846941 0.0423247 -6.79498e-17)
(0.812187 0.00847019 -4.80851e-17)
(0.85163 0.0362709 1.27047e-16)
(0.810633 0.0128724 2.95723e-16)
(0.85469 0.0360864 1.80065e-16)
(0.810655 0.013834 3.55313e-17)
(0.851042 0.0368724 2.62149e-17)
(0.803363 0.0149776 1.35779e-16)
(0.849992 0.035473 5.0427e-17)
(0.81623 0.0164769 -3.02766e-17)
(0.870148 0.0375892 -4.66266e-17)
(0.83493 0.0177854 -1.3737e-17)
(0.864135 0.044046 1.25603e-16)
(0.81056 0.0173139 -1.66998e-17)
(0.836664 0.0420782 -1.76539e-17)
(0.80801 -0.00134917 -3.56237e-17)
(0.842701 0.130095 -2.77716e-19)
(0.710928 -0.297049 3.42021e-18)
(0.848923 0.0374196 3.08285e-16)
(0.808722 -0.00714435 -4.66079e-17)
(0.855169 0.0462325 -1.12959e-16)
(0.80082 0.0070059 -6.18525e-17)
(0.851211 0.0370378 -9.81977e-17)
(0.807138 0.0198236 -4.0967e-17)
(0.855968 0.0305949 -8.57343e-17)
(0.802244 0.025734 -1.60164e-16)
(0.8483 0.0296542 4.39792e-17)
(0.798865 0.0281878 3.49771e-17)
(0.845245 0.0284708 -1.85513e-16)
(0.795648 0.0281912 -1.85533e-16)
(0.842889 0.0255814 7.87479e-18)
(0.809258 0.0304435 5.06678e-17)
(0.855812 0.0248079 2.92772e-18)
(0.832928 0.0238731 -5.98469e-17)
(0.848438 0.0297758 1.67294e-17)
(0.815813 0.016751 -7.50776e-17)
(0.833122 0.0347495 3.24465e-17)
(0.809001 -0.00363508 6.25547e-18)
(0.845737 0.125583 -1.47002e-17)
(0.712589 -0.272526 -9.59758e-19)
(0.814683 -0.0120963 -3.45177e-16)
(0.864321 0.0463371 1.88301e-16)
(0.811957 0.00401723 -6.25514e-17)
(0.854405 0.0421156 -1.59147e-16)
(0.823715 0.0106531 1.66057e-17)
(0.858964 0.0364012 -2.70606e-17)
(0.824018 0.0142392 -1.02233e-16)
(0.857899 0.0354504 -1.23197e-16)
(0.812879 0.0148024 1.94143e-16)
(0.856485 0.036055 2.04984e-16)
(0.812707 0.0149627 5.75375e-17)
(0.849224 0.0372592 1.63714e-17)
(0.805551 0.0163217 1.23085e-16)
(0.847556 0.0352188 6.05737e-17)
(0.815764 0.0165173 -1.88786e-17)
(0.868236 0.0378681 -4.239e-17)
(0.836729 0.0181998 -2.58048e-17)
(0.863457 0.0434417 1.2422e-16)
(0.81226 0.0183924 -1.38451e-17)
(0.834702 0.0419119 -1.60798e-17)
(0.809833 -0.000653011 -3.59076e-17)
(0.84124 0.129199 -1.83008e-18)
(0.712111 -0.291493 2.88539e-18)
(0.853977 0.0377518 3.3702e-17)
(0.815361 -0.00510391 -3.60558e-16)
(0.858982 0.0430279 1.88301e-16)
(0.815866 0.00844068 8.85635e-17)
(0.858395 0.0364227 2.76934e-17)
(0.820498 0.0208125 6.12289e-17)
(0.861608 0.0307587 -1.05705e-16)
(0.814321 0.0260118 -5.55231e-17)
(0.85735 0.0299124 -4.16732e-17)
(0.80547 0.028556 -1.69583e-16)
(0.848268 0.0298173 1.64946e-17)
(0.803919 0.0292012 5.66236e-17)
(0.841692 0.0279231 -1.60941e-16)
(0.79926 0.029097 -1.84654e-16)
(0.840072 0.0258591 -6.78141e-18)
(0.811105 0.0303153 4.56588e-17)
(0.852733 0.0257142 5.43941e-18)
(0.835042 0.0238858 -5.8597e-17)
(0.848865 0.0310542 2.10964e-17)
(0.817337 0.0166782 -7.37061e-17)
(0.831663 0.0353632 2.9336e-17)
(0.811075 -0.00345366 6.33475e-18)
(0.844131 0.124882 -1.35189e-17)
(0.710108 -0.267342 1.89285e-18)
(0.818346 -0.0110123 4.79851e-17)
(0.869293 0.0454757 1.55628e-16)
(0.824554 0.00624286 -2.73647e-16)
(0.862048 0.0413699 1.82429e-16)
(0.835149 0.0125346 9.91819e-17)
(0.867323 0.0365259 -7.50533e-17)
(0.836637 0.0157739 -1.39806e-16)
(0.865886 0.035233 -5.06948e-17)
(0.82817 0.0158617 -9.25114e-17)
(0.861521 0.0340681 -1.71592e-16)
(0.815978 0.0162629 1.16074e-16)
(0.850947 0.0340411 2.07195e-16)
(0.816203 0.0161857 7.00048e-17)
(0.848452 0.0363953 7.2133e-18)
(0.807263 0.0176812 1.03816e-16)
(0.844491 0.033325 6.55255e-17)
(0.81593 0.017375 -6.91032e-18)
(0.864533 0.0376249 -3.6417e-17)
(0.837599 0.0182088 -3.68391e-17)
(0.861876 0.0427294 1.19142e-16)
(0.814994 0.0188992 -1.16777e-17)
(0.832972 0.0420076 -1.38771e-17)
(0.811414 -0.00061893 -3.65283e-17)
(0.841292 0.127968 -3.97298e-18)
(0.719924 -0.275158 -4.48924e-20)
(0.852462 0.0378661 1.32247e-16)
(0.816205 -0.00311167 3.11791e-17)
(0.858866 0.0405858 1.96248e-16)
(0.829182 0.010367 -3.91856e-16)
(0.865169 0.0358014 -1.83079e-16)
(0.834233 0.0219386 -1.20767e-16)
(0.871713 0.0311655 -4.91898e-17)
(0.831005 0.0268034 1.03959e-16)
(0.864941 0.0310155 -5.29942e-17)
(0.818297 0.0282944 -6.06611e-17)
(0.856404 0.0288125 -2.78761e-17)
(0.813448 0.0300301 -1.41512e-16)
(0.844857 0.0301001 5.19783e-18)
(0.806222 0.0299796 7.07372e-17)
(0.840683 0.0284621 -1.39259e-16)
(0.802329 0.0289197 -1.74365e-16)
(0.839802 0.0278845 -1.45152e-17)
(0.813596 0.0297969 3.87895e-17)
(0.851589 0.0277512 3.10477e-18)
(0.836988 0.0237645 -5.48693e-17)
(0.849434 0.0325013 2.63566e-17)
(0.818503 0.0172279 -7.30592e-17)
(0.830992 0.0361317 2.64961e-17)
(0.813039 -0.00372031 4.51443e-18)
(0.845848 0.122899 -1.3257e-17)
(0.725004 -0.274236 2.17653e-18)
(0.814746 -0.0101962 1.77733e-16)
(0.862847 0.0444237 1.55842e-16)
(0.822684 0.00797341 -4.54728e-18)
(0.860577 0.039752 3.20022e-16)
(0.837983 0.0138386 -8.98153e-17)
(0.866182 0.0360639 7.74766e-19)
(0.836704 0.0170134 1.90558e-16)
(0.865059 0.0339377 2.86016e-16)
(0.836995 0.0168059 -1.89297e-17)
(0.867914 0.0342493 -3.35055e-17)
(0.831392 0.0177025 -7.6629e-17)
(0.857904 0.0338254 -1.91851e-16)
(0.817303 0.017259 6.84605e-17)
(0.85079 0.033239 1.99894e-16)
(0.817119 0.0187782 8.14668e-17)
(0.845738 0.0355381 -1.70442e-19)
(0.808804 0.0194568 8.67212e-17)
(0.8413 0.0331552 6.82585e-17)
(0.815652 0.0179915 4.6293e-18)
(0.860214 0.0360309 -2.68593e-17)
(0.837912 0.018475 -4.79965e-17)
(0.860033 0.0423709 1.14138e-16)
(0.816631 0.0193596 -8.98882e-18)
(0.832308 0.04219 -1.21227e-17)
(0.813671 -0.000996152 -3.21634e-17)
(0.833657 0.126915 -5.74375e-18)
(0.718972 -0.275964 2.4165e-19)
(0.844211 0.0377404 -5.36146e-16)
(0.809616 -0.00171799 7.63284e-17)
(0.851316 0.0384544 1.30475e-16)
(0.830487 0.0128375 -5.74699e-17)
(0.859438 0.0347405 3.3724e-16)
(0.832645 0.0225481 3.59906e-16)
(0.86363 0.0308334 3.3017e-16)
(0.829476 0.0273356 6.98683e-17)
(0.869125 0.0311188 -4.44763e-17)
(0.832634 0.0290837 1.03586e-16)
(0.866159 0.0310954 -2.75467e-17)
(0.821978 0.0294536 -6.16981e-17)
(0.855241 0.0295173 -2.33342e-17)
(0.815271 0.0302295 -1.35875e-16)
(0.84476 0.030303 6.05151e-19)
(0.811309 0.0287066 8.11016e-17)
(0.839902 0.0287506 -1.22363e-16)
(0.804039 0.0287486 -1.68547e-16)
(0.837762 0.0282951 -1.98159e-17)
(0.815453 0.0288559 3.23679e-17)
(0.852719 0.0300337 -2.98507e-19)
(0.83857 0.0238149 -5.5898e-17)
(0.851296 0.033442 3.16879e-17)
(0.819232 0.017799 -7.12293e-17)
(0.830412 0.0376126 2.45965e-17)
(0.817429 -0.00386538 2.93749e-18)
(0.835666 0.126681 -1.124e-17)
(0.716939 -0.269117 1.97019e-18)
(0.807328 -0.00942246 4.1601e-16)
(0.85391 0.0434651 -4.44017e-16)
(0.818144 0.00935551 4.46724e-17)
(0.851246 0.0381938 1.83354e-16)
(0.832068 0.0148295 -1.2368e-16)
(0.857043 0.0353289 -1.81528e-16)
(0.83068 0.0181242 -2.99178e-16)
(0.859618 0.0334988 -4.03997e-16)
(0.835984 0.0178007 -9.26787e-17)
(0.865751 0.0327109 2.66522e-16)
(0.837802 0.018636 3.21735e-17)
(0.865421 0.0336416 -2.16259e-17)
(0.832665 0.0183862 -6.20938e-17)
(0.859128 0.0336636 -1.98014e-16)
(0.819224 0.0199437 2.56834e-17)
(0.847582 0.0330895 1.89931e-16)
(0.817086 0.0195979 9.10625e-17)
(0.84508 0.034522 -8.27707e-18)
(0.810162 0.020283 7.63155e-17)
(0.840378 0.0338558 6.54598e-17)
(0.815504 0.0189229 1.17448e-17)
(0.858007 0.0362067 -1.97341e-17)
(0.837665 0.0188474 -5.38401e-17)
(0.860618 0.0418493 1.10556e-16)
(0.817586 0.0195504 -5.31075e-18)
(0.831753 0.042441 -1.01421e-17)
(0.816947 -0.0035244 -3.03601e-17)
(0.834868 0.12863 -8.70053e-18)
(0.714404 -0.270712 5.51374e-19)
(0.835847 0.0375159 -7.97345e-18)
(0.801586 -0.000574428 4.66753e-16)
(0.841829 0.0364519 -3.86121e-16)
(0.823694 0.0152631 -1.27363e-16)
(0.847847 0.0335765 8.28867e-17)
(0.825936 0.0231765 1.58768e-16)
(0.854642 0.0306563 9.78573e-17)
(0.826697 0.0278124 1.54898e-16)
(0.860472 0.0313121 3.6378e-16)
(0.828648 0.0288552 1.57716e-16)
(0.867393 0.0303438 -3.38374e-17)
(0.835573 0.0291735 9.64194e-17)
(0.865497 0.0310012 -1.35532e-17)
(0.824407 0.0299055 -6.25752e-17)
(0.855184 0.0298336 -2.22314e-17)
(0.818474 0.0286086 -1.20411e-16)
(0.844378 0.0305589 -5.90286e-18)
(0.812733 0.0288978 8.66856e-17)
(0.839829 0.0294206 -1.03378e-16)
(0.804979 0.0289827 -1.66415e-16)
(0.83674 0.0286598 -2.23974e-17)
(0.8159 0.0280205 2.98625e-17)
(0.852156 0.0307034 5.70929e-19)
(0.838119 0.0239657 -5.62852e-17)
(0.852867 0.0343864 3.64417e-17)
(0.819571 0.0181395 -7.16183e-17)
(0.830208 0.0396967 2.13553e-17)
(0.816141 -0.00533284 3.07981e-18)
(0.837021 0.126046 -1.16928e-17)
(0.715031 -0.264207 1.88441e-18)
(0.799313 -0.00871111 -2.52987e-16)
(0.839329 0.0423503 -1.69094e-16)
(0.807291 0.0104244 4.09557e-16)
(0.838376 0.0358913 -4.04734e-16)
(0.825401 0.0157179 -4.83462e-16)
(0.84724 0.0347206 -4.73482e-16)
(0.824592 0.0192065 -4.60183e-16)
(0.850789 0.0329027 -3.29977e-16)
(0.828164 0.0180295 -3.14124e-16)
(0.858123 0.0319169 -4.53926e-16)
(0.834922 0.0194901 -1.85433e-16)
(0.863528 0.0323249 2.349e-16)
(0.839025 0.0195634 5.85761e-17)
(0.865935 0.0328923 -1.00596e-17)
(0.832882 0.0195021 -4.96296e-17)
(0.858619 0.0335951 -1.9779e-16)
(0.819889 0.020268 1.11131e-18)
(0.847812 0.0329718 1.8024e-16)
(0.817567 0.0202135 9.94877e-17)
(0.843261 0.0335916 -2.39247e-17)
(0.810889 0.0204925 5.89372e-17)
(0.839966 0.03416 6.14747e-17)
(0.815546 0.0193011 1.54137e-17)
(0.857584 0.036375 -1.50535e-17)
(0.837213 0.0194286 -6.05737e-17)
(0.859623 0.0412007 1.00352e-16)
(0.818695 0.0196573 -6.98007e-18)
(0.831526 0.043817 -8.63343e-18)
(0.816432 -0.00501828 -2.97772e-17)
(0.836796 0.127425 -7.79186e-18)
(0.713691 -0.266323 7.63917e-19)
(0.832926 0.0370157 3.84397e-16)
(0.792793 0.000808421 -1.79252e-16)
(0.828425 0.0343662 -2.33819e-16)
(0.811424 0.0172826 6.56481e-16)
(0.835638 0.0322691 3.14492e-16)
(0.817424 0.0239392 1.13466e-16)
(0.843211 0.0304089 1.56545e-16)
(0.81722 0.0282783 3.35376e-16)
(0.848885 0.0311522 2.43691e-16)
(0.824232 0.0287981 1.37456e-16)
(0.859495 0.0307348 3.50141e-16)
(0.829105 0.0296303 1.8179e-16)
(0.865726 0.0309316 -1.9389e-17)
(0.836165 0.0292576 9.50841e-17)
(0.865432 0.0310509 -4.44507e-18)
(0.827397 0.0296568 -6.08836e-17)
(0.854991 0.0304563 -2.32471e-17)
(0.819716 0.0287282 -1.17717e-16)
(0.844018 0.0308515 -9.20935e-18)
(0.814033 0.0289059 9.32284e-17)
(0.842745 0.0300818 -7.77024e-17)
(0.806558 0.0288575 -1.55758e-16)
(0.835659 0.029088 -2.60334e-17)
(0.815401 0.0276414 2.83373e-17)
(0.852433 0.0309212 1.46093e-18)
(0.838913 0.0239067 -5.63394e-17)
(0.854656 0.0355831 4.56724e-17)
(0.820471 0.0183369 -6.56207e-17)
(0.830348 0.041447 2.1425e-17)
(0.814792 -0.00648553 3.01498e-18)
(0.837103 0.126034 -1.35698e-17)
(0.714741 -0.259889 1.82921e-18)
(0.798084 -0.00797714 -3.36973e-16)
(0.833638 0.0405147 3.48286e-16)
(0.804288 0.0114976 -5.80448e-17)
(0.826864 0.0353011 -4.00805e-16)
(0.817029 0.0165486 4.51382e-16)
(0.834809 0.0340404 3.90551e-16)
(0.814461 0.0199498 4.33979e-16)
(0.83697 0.0322394 1.43644e-16)
(0.818705 0.0185182 -2.78938e-16)
(0.848714 0.0323198 -3.08184e-16)
(0.826905 0.0195056 -2.85996e-16)
(0.856484 0.0318339 -4.22305e-16)
(0.835062 0.0199994 -2.19511e-16)
(0.862995 0.0323001 2.02612e-16)
(0.839121 0.0203736 7.35115e-17)
(0.865881 0.0322539 -1.27237e-18)
(0.834065 0.0199095 -4.0067e-17)
(0.858116 0.0331686 -1.92912e-16)
(0.821089 0.0207439 -2.03756e-17)
(0.84723 0.0327706 1.67989e-16)
(0.817746 0.021151 1.05653e-16)
(0.841558 0.0333961 -2.16316e-17)
(0.81127 0.0206922 4.65122e-17)
(0.839738 0.0345173 5.76131e-17)
(0.814901 0.0199027 1.83219e-17)
(0.856091 0.0366687 -1.2376e-17)
(0.837605 0.0199181 -6.50907e-17)
(0.859548 0.040873 9.73176e-17)
(0.8199 0.0192989 -8.10923e-18)
(0.832487 0.044968 -9.37487e-18)
(0.815863 -0.00635805 -2.79486e-17)
(0.834303 0.128749 -9.52762e-18)
(0.714374 -0.26201 -4.07215e-18)
(0.829416 0.0361613 2.46291e-17)
(0.786091 0.00273767 -3.48731e-16)
(0.823655 0.0323684 3.59001e-16)
(0.804668 0.0186061 6.60912e-17)
(0.828033 0.0313755 -8.02612e-16)
(0.810699 0.0247623 -6.00181e-16)
(0.833657 0.0302411 -4.14288e-16)
(0.809863 0.0286467 -4.49494e-16)
(0.838258 0.031017 -2.14491e-16)
(0.814522 0.0288156 2.20247e-16)
(0.84773 0.0305164 2.45626e-16)
(0.823452 0.028991 1.1952e-16)
(0.859035 0.0296743 2.883e-16)
(0.829244 0.0295199 1.77352e-16)
(0.864273 0.0309974 -3.71429e-18)
(0.837662 0.0298143 9.54091e-17)
(0.864126 0.0314906 2.40814e-18)
(0.829785 0.0297317 -5.99861e-17)
(0.854997 0.0308379 -2.80069e-17)
(0.820895 0.028852 -1.15529e-16)
(0.843882 0.0312726 -1.0183e-17)
(0.814859 0.0288927 9.52849e-17)
(0.842562 0.0303194 -6.71295e-17)
(0.807724 0.0288391 -1.50133e-16)
(0.836018 0.0294708 -2.4451e-17)
(0.815291 0.0271691 2.74556e-17)
(0.851714 0.0314641 3.04422e-18)
(0.838513 0.0237177 -6.02517e-17)
(0.855103 0.0363893 4.79527e-17)
(0.820793 0.0185396 -6.48369e-17)
(0.831352 0.0427656 1.92162e-17)
(0.816051 -0.00858859 4.63969e-18)
(0.83458 0.126669 -1.3389e-17)
(0.715425 -0.255774 5.44297e-18)
(0.794707 -0.00732726 -6.39782e-17)
(0.828342 0.0384937 1.10385e-16)
(0.800906 0.0122578 -4.24034e-16)
(0.815048 0.0343819 3.42439e-16)
(0.809688 0.017421 6.50211e-16)
(0.825643 0.0332717 3.69059e-16)
(0.808153 0.0205948 2.72387e-16)
(0.828377 0.0317389 3.43552e-16)
(0.810572 0.0191689 5.65279e-16)
(0.835445 0.0320416 3.40142e-16)
(0.816513 0.0193887 -1.77916e-16)
(0.846918 0.0316442 -2.89479e-16)
(0.826687 0.0211481 -2.59294e-16)
(0.854531 0.0315258 -4.04798e-16)
(0.834475 0.0216222 -2.04027e-16)
(0.862428 0.0318103 1.82975e-16)
(0.839987 0.0207504 8.6182e-17)
(0.864933 0.031901 6.25826e-18)
(0.835167 0.0208 -3.27384e-17)
(0.857218 0.0327551 -1.87056e-16)
(0.822471 0.0213802 -3.65626e-17)
(0.846674 0.0326566 1.58191e-16)
(0.818169 0.0220165 1.11232e-16)
(0.841491 0.0332102 -2.31031e-17)
(0.811822 0.0208606 3.56629e-17)
(0.83848 0.0346204 5.0927e-17)
(0.814692 0.0208114 2.0533e-17)
(0.855284 0.0366597 -8.27833e-18)
(0.83784 0.020532 -6.62346e-17)
(0.859534 0.0410101 9.53963e-17)
(0.820107 0.0194009 -6.65003e-18)
(0.832074 0.0466498 -7.05864e-18)
(0.81594 -0.00840184 -3.19227e-17)
(0.844763 0.118118 -1.04899e-17)
(0.714741 -0.258528 -2.1986e-18)
(0.825329 0.0354027 1.06692e-16)
(0.784103 0.00483695 -5.09834e-17)
(0.823226 0.0309649 1.41418e-16)
(0.800503 0.01979 -6.21823e-16)
(0.823167 0.0306847 -1.57987e-16)
(0.805953 0.0254081 2.48654e-16)
(0.827159 0.0300876 1.64915e-16)
(0.805463 0.0289474 2.2096e-17)
(0.830335 0.0304177 -1.65117e-16)
(0.80682 0.0288658 -4.3353e-16)
(0.837272 0.0305575 -2.99311e-16)
(0.813536 0.0291725 1.59285e-16)
(0.846085 0.0302187 2.44603e-16)
(0.823796 0.0292114 9.81508e-17)
(0.85637 0.0295223 2.61393e-16)
(0.832149 0.0288546 1.33971e-16)
(0.862049 0.0312737 8.10527e-19)
(0.838747 0.0298946 9.41782e-17)
(0.863619 0.0316948 8.10812e-18)
(0.831753 0.0296258 -5.66379e-17)
(0.854462 0.0311495 -3.14622e-17)
(0.821842 0.0289011 -1.13405e-16)
(0.843561 0.0314176 -1.22449e-17)
(0.816102 0.0286179 9.96681e-17)
(0.842084 0.0306337 -5.56174e-17)
(0.809012 0.0289838 -1.44069e-16)
(0.836103 0.0305877 -1.9577e-17)
(0.815526 0.0264791 2.66068e-17)
(0.851227 0.0318415 4.61138e-18)
(0.838813 0.0235542 -6.19041e-17)
(0.85551 0.0369532 4.97027e-17)
(0.820698 0.0189644 -6.28973e-17)
(0.832599 0.0446282 1.51307e-17)
(0.804619 -0.00253648 6.00946e-18)
(0.844983 0.117505 -1.33044e-17)
(0.715889 -0.252797 9.26488e-18)
(0.79284 -0.00689854 6.03633e-17)
(0.821393 0.0362096 1.43089e-16)
(0.797157 0.0127893 1.93188e-18)
(0.810525 0.033468 2.90975e-16)
(0.80829 0.0182708 -4.74728e-16)
(0.822009 0.0326994 -4.16724e-16)
(0.807647 0.0212407 -2.28384e-16)
(0.825872 0.0314533 -1.78787e-16)
(0.807578 0.0200333 -9.27006e-17)
(0.828395 0.0318368 1.54097e-16)
(0.80925 0.0198108 5.22363e-16)
(0.833843 0.0318453 4.06125e-16)
(0.815293 0.0205537 -1.06055e-16)
(0.845014 0.0311848 -2.71269e-16)
(0.826571 0.0219793 -2.30333e-16)
(0.853655 0.031727 -3.69941e-16)
(0.833551 0.0220153 -2.06683e-16)
(0.861424 0.0316145 1.6245e-16)
(0.840518 0.0211495 9.30748e-17)
(0.863961 0.0318079 1.38237e-17)
(0.835972 0.0215359 -2.77646e-17)
(0.856709 0.0326825 -1.70078e-16)
(0.823391 0.0218768 -5.39257e-17)
(0.845306 0.0328902 1.36427e-16)
(0.818432 0.0225346 1.1384e-16)
(0.841151 0.0331457 -2.12663e-17)
(0.812417 0.0211243 2.43286e-17)
(0.838265 0.0341529 4.69898e-17)
(0.814324 0.0212376 2.28288e-17)
(0.853967 0.0367891 -7.41226e-18)
(0.837872 0.0208329 -7.23523e-17)
(0.859617 0.0410191 9.2894e-17)
(0.820007 0.0194854 -4.32223e-18)
(0.837328 0.0458139 -2.4392e-18)
(0.807369 -0.00111838 -2.77152e-17)
(0.840006 0.120618 -1.15376e-17)
(0.715382 -0.255046 -7.53265e-19)
(0.826418 0.0346171 1.31619e-16)
(0.785899 0.00646832 -3.34241e-17)
(0.823067 0.0299404 5.66577e-17)
(0.797509 0.0206306 -4.66242e-17)
(0.820689 0.0301615 5.83223e-16)
(0.805998 0.0261635 3.08205e-16)
(0.82947 0.0304328 -8.55395e-17)
(0.811599 0.0295626 -5.85554e-17)
(0.831458 0.0303124 1.33276e-16)
(0.805017 0.0292989 1.0459e-16)
(0.829715 0.0299098 -7.59885e-17)
(0.806776 0.0292528 -3.82266e-16)
(0.835337 0.0299167 -3.31174e-16)
(0.814172 0.0291403 1.1053e-16)
(0.844502 0.0302746 2.37527e-16)
(0.824185 0.0295621 8.15924e-17)
(0.854783 0.0293575 2.13811e-16)
(0.832818 0.0291914 9.87368e-17)
(0.860298 0.0316255 7.11335e-18)
(0.839736 0.0299935 9.50284e-17)
(0.863267 0.0318194 1.1767e-17)
(0.832814 0.0292614 -5.19007e-17)
(0.85532 0.0311546 -4.48197e-17)
(0.822614 0.0287369 -1.10793e-16)
(0.844786 0.0312226 -2.89909e-18)
(0.816667 0.0286026 1.05829e-16)
(0.841192 0.0308956 -4.88182e-17)
(0.809754 0.0290985 -1.3779e-16)
(0.835153 0.0308568 -2.52031e-17)
(0.815598 0.0262851 2.27429e-17)
(0.850497 0.032243 8.60181e-18)
(0.838866 0.0234624 -6.0783e-17)
(0.855957 0.0372331 5.10094e-17)
(0.821269 0.0190327 -6.32994e-17)
(0.834851 0.0422488 1.10732e-17)
(0.809327 -0.00359076 1.8971e-18)
(0.840648 0.120235 -1.38245e-17)
(0.716616 -0.249417 3.28369e-18)
(0.800518 -0.00620057 -1.71764e-16)
(0.829215 0.0356601 5.7266e-17)
(0.8089 0.013845 -2.25738e-17)
(0.816831 0.032749 1.00753e-16)
(0.814222 0.0193102 -5.91749e-17)
(0.828215 0.0326188 1.7242e-16)
(0.8206 0.0221013 1.96964e-16)
(0.83885 0.031737 1.00641e-16)
(0.818268 0.021088 1.71893e-17)
(0.829917 0.0317557 -1.40643e-16)
(0.808025 0.0209251 -1.39849e-16)
(0.827248 0.0314451 7.19474e-17)
(0.80931 0.0205422 4.59818e-16)
(0.832781 0.0315677 4.23969e-16)
(0.814978 0.0215644 -5.46408e-17)
(0.843251 0.030644 -2.50562e-16)
(0.827201 0.0220588 -2.08149e-16)
(0.852453 0.0311994 -3.38772e-16)
(0.834549 0.0219749 -1.93703e-16)
(0.860552 0.031962 1.3757e-16)
(0.840352 0.0214355 9.98261e-17)
(0.863728 0.0319936 1.94601e-17)
(0.835735 0.0218684 -2.08613e-17)
(0.856503 0.0327331 -1.65821e-16)
(0.823739 0.0225414 -6.72594e-17)
(0.844748 0.0327987 1.26182e-16)
(0.818864 0.0230897 1.17126e-16)
(0.84137 0.0332027 -1.90105e-17)
(0.812538 0.0222585 7.47179e-18)
(0.837851 0.0344352 4.17226e-17)
(0.814473 0.0213245 2.41382e-17)
(0.853246 0.0369186 -3.78321e-18)
(0.837668 0.0212775 -7.5497e-17)
(0.860201 0.0410182 9.00574e-17)
(0.820093 0.0200691 -8.28603e-18)
(0.835072 0.0465095 -6.41812e-18)
(0.811671 -0.00443183 -2.12717e-17)
(0.835936 0.122232 -1.25157e-17)
(0.7162 -0.251373 4.48306e-18)
(0.83445 0.0337373 2.75721e-17)
(0.795803 0.00781574 -1.07464e-16)
(0.829171 0.0289056 1.27248e-16)
(0.804455 0.0216019 1.47279e-16)
(0.829437 0.0300839 1.16327e-16)
(0.819056 0.0271149 -3.48885e-16)
(0.845618 0.0311933 -3.71896e-16)
(0.828852 0.0305389 -2.01906e-16)
(0.842965 0.0309873 -2.27185e-16)
(0.815036 0.0296578 -1.65953e-16)
(0.832182 0.0295473 8.29355e-17)
(0.806329 0.0296257 1.15228e-16)
(0.828423 0.0295526 -2.66386e-17)
(0.806203 0.0292862 -3.39363e-16)
(0.833691 0.0298537 -3.33145e-16)
(0.815323 0.0285755 7.36651e-17)
(0.842641 0.0304217 2.29596e-16)
(0.823906 0.0296636 7.32097e-17)
(0.853221 0.0298622 1.89341e-16)
(0.832912 0.0291159 8.98727e-17)
(0.86096 0.0311847 1.98025e-17)
(0.839941 0.0300907 9.50488e-17)
(0.86333 0.0318295 1.7244e-17)
(0.833712 0.0294244 -4.88047e-17)
(0.85524 0.0311177 -4.55137e-17)
(0.823291 0.0286344 -1.10391e-16)
(0.844496 0.0313792 -3.89575e-18)
(0.817334 0.0283976 1.0622e-16)
(0.840914 0.0311077 -4.14506e-17)
(0.810851 0.0282167 -1.22265e-16)
(0.8349 0.0310686 -2.37588e-17)
(0.814999 0.0263559 2.46088e-17)
(0.850307 0.0328949 9.72537e-18)
(0.83827 0.0235638 -6.18794e-17)
(0.856654 0.0374393 4.97042e-17)
(0.821271 0.0195815 -5.26466e-17)
(0.833305 0.0438436 1.45376e-17)
(0.810603 -0.00562858 -2.26205e-18)
(0.850196 0.111026 -1.83112e-17)
(0.717235 -0.24681 -6.09484e-18)
(0.812186 -0.00528741 -2.75334e-16)
(0.839447 0.0351646 -3.19618e-18)
(0.81648 0.0148603 -1.37604e-16)
(0.823334 0.0322567 5.3035e-17)
(0.825804 0.0204276 -2.26757e-16)
(0.843201 0.032715 -1.19131e-16)
(0.839096 0.0229765 -1.50957e-16)
(0.852776 0.0320223 -1.21839e-16)
(0.833052 0.0218491 6.14493e-18)
(0.843717 0.0326639 9.35221e-17)
(0.821269 0.0223234 6.03187e-17)
(0.83144 0.0318075 -1.09897e-16)
(0.808593 0.0214177 -1.45483e-16)
(0.827141 0.0314481 2.22401e-17)
(0.808541 0.0220312 3.74156e-16)
(0.831381 0.0312289 4.19236e-16)
(0.814351 0.0221113 -1.85716e-17)
(0.842202 0.0303429 -2.33983e-16)
(0.826298 0.0227896 -1.85598e-16)
(0.851407 0.0311073 -3.01731e-16)
(0.834515 0.022564 -2.00753e-16)
(0.859012 0.0320186 1.2102e-16)
(0.841067 0.0216026 1.06262e-16)
(0.863382 0.0319579 2.4003e-17)
(0.836427 0.022224 -1.6614e-17)
(0.856218 0.0327398 -1.61577e-16)
(0.824177 0.0229827 -7.94709e-17)
(0.844603 0.032927 1.15646e-16)
(0.818832 0.0232958 1.22434e-16)
(0.841457 0.033246 -1.61034e-17)
(0.81232 0.022569 1.3226e-19)
(0.837988 0.0347152 3.91891e-17)
(0.814037 0.021463 2.53465e-17)
(0.852955 0.0366642 -5.79948e-19)
(0.837039 0.0217171 -7.80151e-17)
(0.860695 0.0410959 9.50621e-17)
(0.819871 0.0205544 -6.9694e-18)
(0.834674 0.0474702 -4.96227e-18)
(0.80183 0.00164685 -2.06401e-17)
(0.84539 0.114279 -9.8711e-18)
(0.716648 -0.24868 7.15552e-18)
(0.843005 0.032757 7.23232e-17)
(0.810598 0.00877774 -2.51664e-16)
(0.839513 0.0289616 -9.95191e-17)
(0.819288 0.0226353 -3.40186e-16)
(0.843965 0.0302862 -2.72968e-16)
(0.835597 0.0278612 -2.12668e-16)
(0.859045 0.0316534 1.73766e-16)
(0.838476 0.0310235 3.78233e-16)
(0.853176 0.0314278 2.14266e-16)
(0.832278 0.0305166 -4.9052e-17)
(0.845649 0.0303395 -2.03714e-16)
(0.81697 0.029614 -1.99958e-16)