/*--------------------------------*- C++ -*----------------------------------*\
| =========                 |                                                 |
| \\      /  F ield         | OpenFOAM: The Open Source CFD Toolbox           |
|  \\    /   O peration     | Version:  2206                                  |
|   \\  /    A nd           | Website:  www.openfoam.com                      |
|    \\/     M anipulation  |                                                 |
\*---------------------------------------------------------------------------*/
FoamFile
{
    version     2.0;
    format      ascii;
    arch        "LSB;label=32;scalar=64";
    class       volScalarField;
    location    "160";
    object      alphat;
}
// * * * * * * * * * * * * * * * * * * * * * * * * * * * * * * * * * * * * * //

dimensions      [1 -1 -1 0 0 0 0];

internalField   nonuniform List<scalar> 
93840
(
4.35042e-07
1.25678e-09
3.48343e-07
7.59411e-08
2.44524e-09
2.10924e-07
9.41975e-09
5.1513e-08
3.9639e-09
1.53489e-07
5.8634e-08
2.91185e-08
4.86984e-08
8.03812e-09
1.09733e-07
2.36798e-08
4.41533e-08
2.97987e-08
5.62255e-08
9.31267e-09
6.45192e-08
3.37312e-08
2.60389e-08
4.15095e-08
1.67905e-08
5.98605e-08
1.62373e-08
6.22043e-08
2.34927e-08
3.51612e-08
2.73882e-08
4.18953e-08
2.22894e-08
4.30458e-08
1.87878e-08
4.64304e-08
3.4474e-08
2.05141e-08
3.6296e-08
2.35173e-08
4.3497e-08
2.80494e-08
5.08589e-08
2.06153e-08
5.14008e-08
2.41237e-08
3.83033e-08
2.49801e-08
3.81434e-08
2.16296e-08
4.20683e-08
2.75995e-08
3.98914e-08
2.39758e-08
4.19509e-08
3.39682e-08
2.34567e-08
3.53263e-08
2.06671e-08
4.024e-08
3.11063e-08
3.5583e-08
3.59061e-08
4.1728e-08
2.7263e-08
4.61516e-08
2.42286e-08
3.18326e-08
2.35015e-08
3.84645e-08
2.53665e-08
3.74878e-08
2.78165e-08
3.58958e-08
2.9884e-08
3.78925e-08
3.28736e-08
3.72699e-08
3.257e-08
2.53581e-08
3.37152e-08
2.70761e-08
3.81641e-08
3.06874e-08
3.20148e-08
3.74631e-08
3.2185e-08
3.91982e-08
3.60386e-08
3.10532e-08
3.70632e-08
2.41001e-08
3.05513e-08
2.14315e-08
3.5877e-08
2.3255e-08
3.20971e-08
3.12282e-08
3.59456e-08
3.05314e-08
3.81334e-08
3.37836e-08
3.63917e-08
3.44261e-08
3.15046e-08
3.40844e-08
2.27471e-08
3.41327e-08
2.37648e-08
3.62289e-08
3.1014e-08
3.20772e-08
3.63361e-08
2.99736e-08
3.92997e-08
2.91799e-08
3.85132e-08
3.90814e-08
3.48931e-08
3.0018e-08
2.41691e-08
3.24763e-08
2.51071e-08
3.67695e-08
2.42485e-08
2.96936e-08
3.03525e-08
3.09655e-08
3.08045e-08
3.64323e-08
3.04003e-08
3.82785e-08
3.4157e-08
3.52112e-08
3.28288e-08
2.54706e-08
3.49259e-08
2.19145e-08
3.09029e-08
2.27279e-08
3.31451e-08
3.09817e-08
3.03176e-08
3.38073e-08
3.24535e-08
3.75428e-08
3.05219e-08
4.14439e-08
3.09503e-08
3.53491e-08
3.90302e-08
3.28498e-08
2.43607e-08
2.41698e-08
3.395e-08
2.45068e-08
3.63969e-08
2.63045e-08
2.90141e-08
3.07353e-08
3.05387e-08
3.01677e-08
3.08591e-08
3.07968e-08
3.65862e-08
3.01588e-08
4.13268e-08
3.48235e-08
3.54721e-08
3.16945e-08
2.20988e-08
3.60103e-08
2.23755e-08
3.55419e-08
2.65188e-08
3.31345e-08
3.17935e-08
3.06254e-08
3.12244e-08
3.08359e-08
3.27711e-08
3.21443e-08
3.59015e-08
3.02674e-08
3.41863e-08
2.8108e-08
3.32303e-08
3.91506e-08
3.20486e-08
2.19228e-08
2.5377e-08
3.50375e-08
2.25006e-08
3.33572e-08
2.74095e-08
2.86235e-08
3.2121e-08
3.07783e-08
3.02709e-08
3.00284e-08
2.96589e-08
3.08866e-08
2.99159e-08
3.79365e-08
3.3662e-08
3.96364e-08
3.30317e-08
3.37282e-08
3.09707e-08
2.01472e-08
3.49269e-08
2.33593e-08
3.93805e-08
2.82242e-08
3.21885e-08
3.25397e-08
3.15913e-08
3.16764e-08
3.07609e-08
3.12097e-08
3.08831e-08
3.29274e-08
3.21078e-08
3.78474e-08
3.03775e-08
3.28929e-08
2.7301e-08
3.26598e-08
3.5396e-08
3.06853e-08
2.08168e-08
2.57542e-08
3.52324e-08
2.25245e-08
3.17508e-08
2.85205e-08
2.86487e-08
3.20678e-08
3.17709e-08
3.0535e-08
3.05845e-08
3.00926e-08
3.06669e-08
2.96074e-08
3.11415e-08
2.93387e-08
3.65822e-08
3.24747e-08
3.84515e-08
3.15148e-08
3.44598e-08
2.90918e-08
1.94902e-08
3.33059e-08
2.41151e-08
3.76388e-08
2.88827e-08
3.1361e-08
3.30359e-08
3.25626e-08
3.20534e-08
3.15931e-08
3.21101e-08
3.06552e-08
3.10504e-08
3.12423e-08
3.22243e-08
3.23864e-08
3.35373e-08
3.21857e-08
3.20331e-08
3.07648e-08
3.15766e-08
3.39523e-08
2.93855e-08
2.06188e-08
2.43874e-08
3.46198e-08
2.13477e-08
3.15296e-08
2.9866e-08
2.90716e-08
3.16896e-08
3.14835e-08
3.09023e-08
3.13715e-08
3.05606e-08
3.1129e-08
3.017e-08
3.03734e-08
2.9318e-08
3.16914e-08
3.21025e-08
3.5993e-08
3.22739e-08
3.40344e-08
3.02575e-08
3.32589e-08
2.82262e-08
1.9447e-08
3.48851e-08
2.3603e-08
4.08156e-08
3.06278e-08
3.06387e-08
3.30932e-08
3.24577e-08
3.26506e-08
3.31115e-08
3.18278e-08
3.0952e-08
3.1351e-08
3.07833e-08
3.12933e-08
3.17498e-08
3.08752e-08
3.22432e-08
3.13502e-08
3.05037e-08
3.11259e-08
3.19023e-08
3.04933e-08
3.22453e-08
2.82767e-08
2.02653e-08
2.44912e-08
3.49359e-08
2.18174e-08
3.02378e-08
3.04102e-08
2.99476e-08
3.03807e-08
3.09162e-08
3.08268e-08
3.09522e-08
3.13177e-08
3.16468e-08
3.01105e-08
3.06851e-08
2.97557e-08
3.02189e-08
2.93206e-08
3.15626e-08
3.19781e-08
3.79114e-08
3.19955e-08
3.27659e-08
2.95092e-08
3.1038e-08
2.49917e-08
1.60224e-08
3.55586e-08
2.3123e-08
4.01837e-08
3.17758e-08
3.06814e-08
3.20681e-08
3.1604e-08
3.21712e-08
3.18449e-08
3.16538e-08
3.19396e-08
3.17444e-08
3.13137e-08
3.10463e-08
3.00565e-08
3.07086e-08
3.08072e-08
3.07982e-08
3.13376e-08
3.15135e-08
2.90938e-08
3.09363e-08
3.24582e-08
2.97833e-08
3.05698e-08
2.769e-08
1.90413e-08
2.63717e-08
3.51557e-08
2.24836e-08
2.90961e-08
3.00534e-08
2.99014e-08
2.9585e-08
3.03891e-08
3.04102e-08
3.11121e-08
3.10313e-08
3.05884e-08
3.10774e-08
3.15112e-08
3.00578e-08
3.01857e-08
2.96704e-08
3.01236e-08
2.94826e-08
3.12938e-08
3.10714e-08
3.58342e-08
3.14566e-08
3.20798e-08
2.9009e-08
3.05651e-08
2.84355e-08
1.83529e-08
3.4458e-08
2.36072e-08
3.79581e-08
3.27331e-08
2.98283e-08
3.17188e-08
3.09949e-08
3.04775e-08
3.17757e-08
3.2387e-08
3.21772e-08
3.17916e-08
3.18487e-08
3.13411e-08
3.13112e-08
3.08825e-08
3.01543e-08
3.00691e-08
3.11468e-08
3.07226e-08
3.12987e-08
3.15551e-08
3.11906e-08
3.09135e-08
3.15708e-08
2.92743e-08
3.02417e-08
2.78777e-08
2.08137e-08
2.78674e-08
3.36634e-08
2.29824e-08
2.77358e-08
2.93735e-08
2.98956e-08
3.04114e-08
3.0097e-08
2.93475e-08
3.08842e-08
3.02093e-08
3.07826e-08
3.07768e-08
3.0746e-08
3.07195e-08
3.13154e-08
2.99463e-08
3.02932e-08
2.96237e-08
2.97867e-08
2.86213e-08
3.17472e-08
3.08486e-08
3.33942e-08
3.13554e-08
3.13416e-08
2.85774e-08
3.04776e-08
2.69834e-08
1.94543e-08
3.34551e-08
2.31207e-08
3.60033e-08
3.33456e-08
2.8991e-08
3.1273e-08
2.96619e-08
3.02736e-08
3.06241e-08
3.13555e-08
3.15665e-08
3.16293e-08
3.19281e-08
3.13263e-08
3.17194e-08
3.08259e-08
3.07296e-08
3.05765e-08
3.00467e-08
3.03269e-08
3.1305e-08
3.07499e-08
3.10579e-08
3.1137e-08
3.20209e-08
3.07408e-08
3.1086e-08
2.89131e-08
3.01415e-08
2.74117e-08
2.14143e-08
2.78519e-08
3.33482e-08
2.40981e-08
2.7063e-08
2.91861e-08
2.9615e-08
3.04914e-08
3.06783e-08
2.91015e-08
3.03927e-08
2.95909e-08
3.04607e-08
3.10894e-08
3.06108e-08
3.03843e-08
3.1254e-08
3.05794e-08
3.08545e-08
2.964e-08
3.06673e-08
3.00234e-08
2.9697e-08
2.88707e-08
3.14377e-08
3.12771e-08
3.24341e-08
3.08693e-08
3.13189e-08
2.8913e-08
2.92015e-08
2.69937e-08
1.99733e-08
3.26536e-08
2.28288e-08
3.32868e-08
3.25545e-08
2.77321e-08
2.9819e-08
2.81068e-08
2.95517e-08
2.89825e-08
3.0598e-08
2.95196e-08
3.07214e-08
3.11481e-08
3.10647e-08
3.21075e-08
3.15169e-08
3.11071e-08
3.12805e-08
3.09003e-08
2.99891e-08
3.00746e-08
2.9951e-08
3.10238e-08
3.02625e-08
3.0044e-08
3.06619e-08
3.20264e-08
3.01565e-08
3.09735e-08
2.92345e-08
2.89907e-08
2.67768e-08
2.18188e-08
2.69546e-08
3.38041e-08
2.5234e-08
2.68516e-08
2.88873e-08
2.93479e-08
2.99284e-08
3.04168e-08
3.0374e-08
3.07427e-08
2.99771e-08
3.0658e-08
2.96927e-08
3.02102e-08
3.02141e-08
3.0696e-08
3.04313e-08
3.11039e-08
3.03044e-08
3.09847e-08
2.94573e-08
3.06853e-08
2.97312e-08
2.95675e-08
2.87858e-08
3.09279e-08
3.07907e-08
3.19784e-08
3.01702e-08
3.09976e-08
2.83836e-08
2.91403e-08
2.65834e-08
2.07032e-08
3.25445e-08
2.39864e-08
3.1651e-08
3.16465e-08
2.73515e-08
2.9774e-08
2.82494e-08
2.84414e-08
2.86181e-08
3.02361e-08
2.9465e-08
2.93663e-08
2.99708e-08
3.04215e-08
3.14545e-08
3.07326e-08
3.22869e-08
3.13981e-08
3.06606e-08
3.11424e-08
3.08092e-08
2.98402e-08
3.00516e-08
3.0109e-08
3.07208e-08
2.99278e-08
3.05173e-08
3.02791e-08
3.21281e-08
2.9846e-08
3.08561e-08
2.92415e-08
2.93459e-08
2.63371e-08
2.26389e-08
2.59791e-08
3.31257e-08
2.5784e-08
2.60529e-08
2.86353e-08
2.8598e-08
2.95659e-08
2.93134e-08
3.00505e-08
3.09394e-08
3.05155e-08
3.09221e-08
2.94009e-08
3.09089e-08
2.99305e-08
2.98517e-08
3.06825e-08
3.06e-08
3.04317e-08
3.10627e-08
3.02996e-08
3.08185e-08
2.92662e-08
3.03529e-08
2.94004e-08
2.90568e-08
2.88783e-08
3.10683e-08
3.06891e-08
3.16369e-08
2.95516e-08
3.0769e-08
2.79957e-08
2.91721e-08
2.63514e-08
2.1011e-08
3.35034e-08
2.46555e-08
3.09243e-08
3.10404e-08
2.71107e-08
2.94864e-08
2.84784e-08
2.8211e-08
2.84998e-08
2.91526e-08
2.89465e-08
2.8903e-08
2.91057e-08
2.94051e-08
3.04199e-08
2.95113e-08
3.21738e-08
3.06073e-08
3.25953e-08
3.10289e-08
3.09592e-08
3.04476e-08
3.08888e-08
2.99155e-08
2.96186e-08
3.00965e-08
3.07144e-08
2.81405e-08
2.99244e-08
3.02137e-08
3.19794e-08
2.95218e-08
3.03868e-08
2.87551e-08
2.94623e-08
2.67163e-08
2.31659e-08
2.66785e-08
3.30239e-08
2.67647e-08
2.50452e-08
2.82183e-08
2.77263e-08
2.87293e-08
2.89814e-08
2.94775e-08
2.99998e-08
2.92487e-08
3.07595e-08
3.01915e-08
3.10432e-08
2.88535e-08
3.09303e-08
3.05124e-08
2.95631e-08
3.0673e-08
3.05391e-08
3.0259e-08
3.10414e-08
2.99875e-08
3.08543e-08
2.9261e-08
2.97288e-08
2.94264e-08
2.9398e-08
3.06303e-08
3.04892e-08
3.02572e-08
3.13598e-08
2.94807e-08
3.04635e-08
2.80686e-08
2.87583e-08
2.62938e-08
2.15352e-08
3.3622e-08
2.66222e-08
3.08055e-08
3.07089e-08
2.7597e-08
2.97737e-08
2.91809e-08
2.8831e-08
3.03528e-08
2.75899e-08
2.92717e-08
2.83967e-08
2.95237e-08
2.91033e-08
2.89821e-08
2.97527e-08
3.05228e-08
2.95545e-08
3.25354e-08
3.05259e-08
3.23498e-08
3.07719e-08
3.09417e-08
3.03882e-08
3.06699e-08
2.99834e-08
2.95944e-08
3.01722e-08
3.07101e-08
2.84381e-08
3.00488e-08
3.02055e-08
3.12288e-08
2.90156e-08
3.03085e-08
2.85633e-08
2.90615e-08
2.63712e-08
2.3624e-08
2.83832e-08
3.29922e-08
2.72609e-08
2.53177e-08
2.85635e-08
2.83043e-08
2.87528e-08
2.86749e-08
2.98867e-08
2.93211e-08
2.94461e-08
3.01508e-08
2.96621e-08
3.02305e-08
2.91866e-08
3.11817e-08
2.90296e-08
3.07368e-08
3.04879e-08
2.96423e-08
3.10669e-08
3.05007e-08
3.02596e-08
3.11106e-08
3.00327e-08
3.06525e-08
2.97164e-08
2.93347e-08
2.96555e-08
2.94966e-08
3.03288e-08
3.03076e-08
3.01894e-08
3.12799e-08
2.90714e-08
3.00282e-08
2.81669e-08
2.95426e-08
2.62392e-08
2.18693e-08
3.32455e-08
2.80306e-08
3.12968e-08
3.13155e-08
2.85224e-08
3.13708e-08
3.00624e-08
2.89401e-08
3.17224e-08
2.84724e-08
3.07567e-08
2.80345e-08
2.97376e-08
2.81601e-08
2.9341e-08
2.84564e-08
2.91522e-08
3.01447e-08
3.04577e-08
3.00957e-08
3.24489e-08
3.02503e-08
3.25406e-08
3.09618e-08
3.07384e-08
3.06206e-08
3.02212e-08
2.97264e-08
2.97739e-08
2.97606e-08
3.06917e-08
2.86735e-08
3.02254e-08
3.01242e-08
3.10899e-08
2.89528e-08
2.95812e-08
2.82887e-08
2.94633e-08
2.67326e-08
2.36186e-08
2.91017e-08
3.26789e-08
2.76625e-08
2.59238e-08
2.89403e-08
2.93813e-08
2.87323e-08
2.89586e-08
2.98374e-08
2.96041e-08
3.00218e-08
2.97248e-08
2.97903e-08
2.95273e-08
2.95908e-08
3.01898e-08
2.90431e-08
3.13036e-08
2.88659e-08
3.01639e-08
3.04358e-08
3.03964e-08
3.09209e-08
3.06294e-08
3.02284e-08
3.09992e-08
3.01166e-08
3.03513e-08
2.9314e-08
2.96153e-08
2.96905e-08
2.97251e-08
3.049e-08
2.98115e-08
3.01013e-08
3.10491e-08
2.89229e-08
2.93708e-08
2.81634e-08
2.95517e-08
2.66118e-08
2.21016e-08
3.29079e-08
2.94548e-08
3.17411e-08
3.20682e-08
2.97666e-08
3.2429e-08
3.0076e-08
2.8962e-08
3.07764e-08
2.81805e-08
3.17106e-08
2.85251e-08
3.08169e-08
2.77491e-08
3.10132e-08
2.78495e-08
2.91281e-08
2.96371e-08
2.88849e-08
3.00187e-08
3.10111e-08
3.00068e-08
3.17441e-08
3.04271e-08
3.21472e-08
3.15703e-08
3.05999e-08
3.06429e-08
3.05731e-08
2.96152e-08
2.98213e-08
3.00998e-08
3.05259e-08
2.872e-08
3.00763e-08
2.94402e-08
3.08694e-08
2.8863e-08
2.96262e-08
2.80802e-08
2.94799e-08
2.67994e-08
2.38232e-08
2.9367e-08
3.21085e-08
2.88214e-08
2.69491e-08
2.93847e-08
2.99798e-08
2.80449e-08
2.91546e-08
2.84088e-08
2.91782e-08
2.96488e-08
2.96667e-08
2.99565e-08
2.92854e-08
2.94329e-08
2.95627e-08
2.94441e-08
2.98109e-08
2.9082e-08
3.06181e-08
2.93391e-08
3.06126e-08
3.00351e-08
3.10832e-08
3.01e-08
3.10574e-08
3.02775e-08
3.09733e-08
2.97686e-08
2.97779e-08
2.95598e-08
2.97451e-08
2.99952e-08
2.99249e-08
3.02191e-08
2.94455e-08
2.98663e-08
3.0779e-08
2.89836e-08
2.93403e-08
2.82612e-08
2.93877e-08
2.68438e-08
2.2265e-08
3.20944e-08
2.93974e-08
3.16969e-08
3.18997e-08
3.02409e-08
3.27297e-08
2.92835e-08
2.94489e-08
3.05759e-08
2.85912e-08
3.166e-08
2.88681e-08
3.17624e-08
2.8226e-08
3.11884e-08
2.81115e-08
3.01211e-08
2.82771e-08
2.95302e-08
2.93798e-08
2.89603e-08
2.9629e-08
3.07209e-08
3.00901e-08
3.14695e-08
3.09695e-08
3.15121e-08
3.13025e-08
3.03546e-08
3.08813e-08
3.01015e-08
2.98416e-08
3.00556e-08
3.00912e-08
3.03228e-08
2.88512e-08
3.01146e-08
2.92553e-08
3.07065e-08
2.91025e-08
2.96132e-08
2.8051e-08
2.92416e-08
2.68597e-08
2.36826e-08
2.84779e-08
3.08513e-08
3.03683e-08
2.76034e-08
2.94014e-08
3.01718e-08
2.76054e-08
2.97694e-08
2.70547e-08
2.89231e-08
2.85165e-08
3.00317e-08
2.91844e-08
2.97687e-08
3.00706e-08
2.92024e-08
2.8886e-08
3.00176e-08
2.99424e-08
2.94843e-08
2.94413e-08
3.08153e-08
2.9583e-08
3.09385e-08
3.0104e-08
3.09347e-08
3.07522e-08
3.08272e-08
3.09771e-08
3.12503e-08
2.99131e-08
3.03005e-08
2.9776e-08
2.98832e-08
3.01229e-08
2.98725e-08
2.99258e-08
2.95823e-08
2.96398e-08
3.04294e-08
2.92789e-08
2.92392e-08
2.86987e-08
2.8952e-08
2.6597e-08
2.21616e-08
3.20951e-08
2.88695e-08
3.18246e-08
3.09692e-08
2.99695e-08
3.22709e-08
2.89651e-08
2.97005e-08
3.12605e-08
2.8515e-08
2.9958e-08
2.82161e-08
3.17429e-08
2.86102e-08
3.21801e-08
2.79817e-08
3.08038e-08
2.81601e-08
2.99219e-08
2.82807e-08
2.92196e-08
2.91665e-08
2.88356e-08
2.97184e-08
3.07202e-08
3.01396e-08
3.09881e-08
3.083e-08
3.20477e-08
3.05593e-08
3.09304e-08
3.04992e-08
3.03364e-08
2.99355e-08
3.04742e-08
3.01059e-08
3.05249e-08
2.88095e-08
3.01491e-08
2.90538e-08
3.05729e-08
2.94225e-08
2.90731e-08
2.85708e-08
2.90829e-08
2.62968e-08
2.37983e-08
2.81527e-08
3.04987e-08
3.0217e-08
2.66209e-08
2.8914e-08
2.9687e-08
2.71838e-08
2.93061e-08
2.67689e-08
2.92735e-08
2.73248e-08
2.93095e-08
2.87652e-08
2.97825e-08
2.98461e-08
2.96862e-08
3.02278e-08
2.92992e-08
2.93093e-08
3.00496e-08
2.90981e-08
2.9964e-08
2.92902e-08
3.02957e-08
2.92865e-08
3.11037e-08
3.02142e-08
3.01699e-08
3.0312e-08
3.0886e-08
2.99645e-08
3.12902e-08
3.02646e-08
3.03928e-08
2.9947e-08
2.98793e-08
2.97785e-08
2.97427e-08
2.99491e-08
2.94847e-08
2.98113e-08
3.02924e-08
2.92866e-08
2.89927e-08
2.87484e-08
2.94153e-08
2.60049e-08
2.24821e-08
3.11508e-08
2.87525e-08
3.04914e-08
3.02548e-08
2.98029e-08
3.14933e-08
2.86583e-08
2.9603e-08
2.89324e-08
2.88273e-08
2.94714e-08
2.85562e-08
3.00984e-08
2.83351e-08
3.23384e-08
2.88316e-08
3.19134e-08
2.81733e-08
3.07908e-08
2.83389e-08
2.9633e-08
2.85035e-08
2.90614e-08
2.95585e-08
2.90575e-08
2.93425e-08
3.03863e-08
2.9908e-08
3.17424e-08
3.09749e-08
3.19477e-08
3.15234e-08
3.08699e-08
3.01186e-08
3.03668e-08
2.95927e-08
3.01832e-08
2.9986e-08
3.04616e-08
2.88675e-08
2.98938e-08
2.93175e-08
3.03656e-08
2.9326e-08
2.89067e-08
2.86947e-08
2.97794e-08
2.60495e-08
2.41117e-08
2.74634e-08
2.97702e-08
3.0023e-08
2.64806e-08
2.88616e-08
2.88141e-08
2.70584e-08
2.89361e-08
2.63865e-08
2.96151e-08
2.70911e-08
2.95829e-08
2.72598e-08
2.92837e-08
2.9158e-08
2.94567e-08
3.02517e-08
2.9419e-08
3.02051e-08
2.9337e-08
2.94782e-08
3.03776e-08
2.90699e-08
3.00441e-08
2.9592e-08
2.9914e-08
2.91417e-08
3.0897e-08
3.02475e-08
3.05082e-08
3.01881e-08
3.07885e-08
2.95921e-08
3.13056e-08
3.0296e-08
3.03576e-08
2.97883e-08
3.01441e-08
2.98894e-08
2.99936e-08
2.95355e-08
2.95648e-08
2.97779e-08
3.01465e-08
2.91981e-08
2.89593e-08
2.81254e-08
2.95075e-08
2.64625e-08
2.26878e-08
3.16397e-08
2.70239e-08
2.98602e-08
2.926e-08
2.9354e-08
3.07584e-08
2.83325e-08
2.96301e-08
2.89915e-08
2.90451e-08
2.9056e-08
2.86025e-08
2.97491e-08
2.84518e-08
3.10402e-08
2.9088e-08
3.20121e-08
2.84436e-08
3.21005e-08
2.80982e-08
3.09166e-08
2.83322e-08
2.96906e-08
2.9155e-08
2.88397e-08
2.88638e-08
3.00379e-08
2.96292e-08
3.01334e-08
2.96927e-08
3.16422e-08
3.11031e-08
3.14909e-08
3.09241e-08
3.10571e-08
2.98736e-08
3.04478e-08
2.95184e-08
3.01935e-08
3.04044e-08
3.00147e-08
2.86778e-08
2.99216e-08
2.94984e-08
3.02114e-08
2.94601e-08
2.93035e-08
2.86082e-08
2.9694e-08
2.64077e-08
2.4322e-08
2.72058e-08
3.24006e-08
2.94426e-08
2.59095e-08
2.85696e-08
2.85344e-08
2.68225e-08
2.86793e-08
2.6719e-08
2.91244e-08
2.70629e-08
2.9681e-08
2.7018e-08
2.95214e-08
2.75906e-08
2.90344e-08
2.90615e-08
2.9807e-08
2.97257e-08
2.95143e-08
3.01632e-08
2.90247e-08
2.96037e-08
3.00539e-08
2.92624e-08
3.01138e-08
2.94133e-08
2.98e-08
2.90907e-08
3.09095e-08
3.0167e-08
3.06414e-08
3.01256e-08
3.0673e-08
2.99154e-08
3.13995e-08
3.04696e-08
3.03907e-08
2.97223e-08
2.97694e-08
2.99576e-08
3.08662e-08
2.95575e-08
2.94842e-08
3.00226e-08
2.98519e-08
2.92364e-08
2.92105e-08
2.80743e-08
2.93771e-08
2.63722e-08
2.29129e-08
3.18294e-08
2.71278e-08
2.83035e-08
2.85566e-08
2.87923e-08
3.07418e-08
2.83915e-08
2.99193e-08
2.95198e-08
2.90431e-08
2.93614e-08
2.84271e-08
2.88626e-08
2.85901e-08
2.91491e-08
2.84884e-08
3.1535e-08
2.88744e-08
3.2065e-08
2.89214e-08
3.24475e-08
2.85849e-08
3.11298e-08
2.84624e-08
2.98681e-08
2.94204e-08
2.91785e-08
2.90281e-08
3.02083e-08
2.95984e-08
3.04195e-08
2.9831e-08
3.13875e-08
3.06519e-08
3.17535e-08
3.01689e-08
3.07743e-08
2.99267e-08
3.01605e-08
2.90203e-08
2.98861e-08
2.99862e-08
3.02907e-08
2.86481e-08
3.01638e-08
2.93933e-08
3.01652e-08
2.93808e-08
2.91767e-08
2.84812e-08
2.88678e-08
2.60969e-08
2.47122e-08
2.65934e-08
3.40085e-08
2.83378e-08
2.58469e-08
2.82443e-08
2.83927e-08
2.70602e-08
2.8963e-08
2.75509e-08
2.88608e-08
2.82514e-08
2.88765e-08
2.70201e-08
2.90079e-08
2.71432e-08
2.96044e-08
2.78628e-08
2.99518e-08
2.91041e-08
2.96957e-08
3.02685e-08
2.98466e-08
3.07434e-08
2.91174e-08
2.95889e-08
3.00189e-08
2.9237e-08
3.00334e-08
2.93343e-08
3.00973e-08
2.91209e-08
3.07623e-08
3.02906e-08
3.05189e-08
3.02717e-08
3.07375e-08
3.0065e-08
3.15755e-08
3.04769e-08
3.05317e-08
2.94686e-08
2.99767e-08
3.02327e-08
3.0044e-08
2.98593e-08
2.97961e-08
3.03682e-08
2.97154e-08
2.90877e-08
2.90116e-08
2.86203e-08
2.90772e-08
2.61896e-08
2.31806e-08
3.332e-08
2.80633e-08
2.88852e-08
2.80239e-08
2.83435e-08
3.07234e-08
2.89122e-08
3.05442e-08
3.01066e-08
2.90133e-08
2.94133e-08
2.80286e-08
2.99279e-08
2.87448e-08
2.91078e-08
2.84926e-08
2.94594e-08
2.85667e-08
3.15618e-08
2.90997e-08
3.27338e-08
2.88104e-08
3.1981e-08
2.82847e-08
3.09923e-08
2.8459e-08
2.95022e-08
2.92506e-08
2.95228e-08
2.9026e-08
3.00367e-08
2.98308e-08
3.06983e-08
3.00492e-08
3.15299e-08
3.07271e-08
3.16895e-08
3.0106e-08
3.07403e-08
2.97553e-08
3.01768e-08
2.90051e-08
3.00293e-08
3.04119e-08
3.00474e-08
2.85672e-08
2.97898e-08
2.97707e-08
3.00345e-08
2.94203e-08
2.92851e-08
2.7922e-08
2.91139e-08
2.63534e-08
2.54342e-08
2.68805e-08
3.36778e-08
2.73137e-08
2.53764e-08
2.78092e-08
2.86817e-08
2.76519e-08
2.9662e-08
2.80304e-08
2.93795e-08
2.91034e-08
2.77244e-08
2.76811e-08
2.8407e-08
2.7143e-08
2.90324e-08
2.74229e-08
2.92049e-08
2.77412e-08
2.92993e-08
2.99346e-08
3.00784e-08
2.97028e-08
2.97478e-08
3.10823e-08
2.90695e-08
2.96668e-08
3.01913e-08
2.921e-08
2.96755e-08
2.95563e-08
3.04271e-08
2.94283e-08
3.11602e-08
2.97978e-08
3.06808e-08
3.00567e-08
3.06472e-08
3.04785e-08
3.11959e-08
3.03725e-08
3.02642e-08
2.93542e-08
3.00365e-08
3.05516e-08
3.03444e-08
3.0076e-08
3.00109e-08
3.02673e-08
2.96351e-08
2.91325e-08
2.96813e-08
2.78629e-08
2.90657e-08
2.5785e-08
2.39598e-08
3.37321e-08
2.81558e-08
2.71521e-08
2.76158e-08
2.78955e-08
3.05471e-08
2.94629e-08
3.08271e-08
3.00616e-08
2.95662e-08
2.97531e-08
2.89933e-08
3.0007e-08
2.77569e-08
2.95794e-08
2.81215e-08
2.98734e-08
2.85587e-08
3.01539e-08
2.84884e-08
3.2148e-08
2.88533e-08
3.1956e-08
2.93482e-08
3.2034e-08
2.81969e-08
3.09522e-08
2.84953e-08
2.9837e-08
2.90728e-08
2.94208e-08
2.90706e-08
2.97209e-08
3.00776e-08
3.05078e-08
2.99498e-08
3.16457e-08
3.07369e-08
3.16753e-08
2.98913e-08
3.09932e-08
2.98505e-08
3.00312e-08
2.93641e-08
3.02172e-08
3.00646e-08
2.94562e-08
2.83593e-08
2.99668e-08
2.96395e-08
2.985e-08
2.87988e-08
2.96419e-08
2.80903e-08
2.90378e-08
2.56647e-08
2.57755e-08
2.80442e-08
3.46379e-08
2.70543e-08
2.60505e-08
2.7804e-08
2.90068e-08
2.84483e-08
3.02085e-08
2.83815e-08
2.99768e-08
2.83417e-08
2.97822e-08
2.804e-08
2.86185e-08
2.83265e-08
2.90073e-08
2.71697e-08
2.79346e-08
2.72955e-08
2.93637e-08
2.7845e-08
2.98738e-08
3.00985e-08
3.00959e-08
3.0271e-08
2.96351e-08
3.0961e-08
2.91762e-08
2.91139e-08
2.97466e-08
2.91422e-08
3.01083e-08
2.96765e-08
3.02905e-08
2.95011e-08
3.05882e-08
3.03073e-08
3.09204e-08
3.03018e-08
3.08754e-08
3.10472e-08
3.11777e-08
3.05046e-08
3.03224e-08
2.94399e-08
2.99474e-08
3.07565e-08
3.06318e-08
2.96504e-08
2.97997e-08
2.98758e-08
3.00859e-08
2.89214e-08
2.9478e-08
2.78168e-08
2.92881e-08
2.55805e-08
2.45627e-08
3.2894e-08
2.98218e-08
2.75106e-08
2.78715e-08
2.76984e-08
3.05568e-08
2.99042e-08
3.11153e-08
3.01103e-08
2.96803e-08
3.03063e-08
2.94583e-08
2.93211e-08
2.89773e-08
2.94662e-08
2.74745e-08
2.95007e-08
2.83447e-08
2.97926e-08
2.84211e-08
2.96067e-08
2.85053e-08
3.08674e-08
2.91624e-08
3.17061e-08
2.8877e-08
3.15607e-08
2.81934e-08
3.09312e-08
2.87164e-08
2.94482e-08
2.9155e-08
2.97363e-08
2.94513e-08
2.95987e-08
2.97987e-08
3.06895e-08
2.97152e-08
3.15309e-08
3.04764e-08
3.18455e-08
2.99175e-08
3.0934e-08
2.97942e-08
3.01903e-08
2.95233e-08
3.03019e-08
3.02588e-08
2.93895e-08
2.8423e-08
3.02786e-08
2.95589e-08
3.01245e-08
2.87776e-08
2.9422e-08
2.80389e-08
2.88614e-08
2.55302e-08
2.64773e-08
2.79419e-08
3.34299e-08
2.79388e-08
2.62733e-08
2.78255e-08
2.90399e-08
2.8997e-08
3.00732e-08
2.84179e-08
2.98462e-08
2.87212e-08
3.03228e-08
2.83368e-08
3.07289e-08
2.80373e-08
2.86447e-08
2.82559e-08
2.93112e-08
2.7498e-08
2.83053e-08
2.73103e-08
2.90854e-08
2.81517e-08
2.96699e-08
2.98999e-08
3.10478e-08
3.05489e-08
3.02e-08
3.05494e-08
2.88961e-08
2.90975e-08
2.97453e-08
2.92775e-08
2.95294e-08
2.9678e-08
3.05161e-08
2.93787e-08
3.08543e-08
2.98118e-08
3.08997e-08
3.05694e-08
3.07381e-08
3.06136e-08
3.10552e-08
3.06072e-08
3.02793e-08
2.96346e-08
3.00948e-08
3.07204e-08
3.06498e-08
2.94775e-08
2.96544e-08
2.95308e-08
3.0071e-08
2.88045e-08
2.9105e-08
2.80203e-08
2.92368e-08
2.50417e-08
2.48737e-08
3.34314e-08
3.00093e-08
2.66243e-08
2.77259e-08
2.76824e-08
3.00319e-08
3.01944e-08
3.07084e-08
3.02009e-08
2.97508e-08
3.01452e-08
2.95889e-08
3.00477e-08
2.89715e-08
2.92375e-08
2.90808e-08
2.93865e-08
2.77641e-08
2.8925e-08
2.80388e-08
2.97531e-08
2.88535e-08
3.00134e-08
2.8674e-08
3.12502e-08
2.91447e-08
3.1424e-08
2.94303e-08
3.21486e-08
2.88756e-08
3.0914e-08
2.87035e-08
2.98546e-08
2.91602e-08
2.94927e-08
2.95154e-08
2.98409e-08
3.01282e-08
3.05771e-08
3.02811e-08
3.19331e-08
3.03728e-08
3.14185e-08
3.00393e-08
3.06854e-08
2.98132e-08
3.02639e-08
2.94516e-08
3.02204e-08
3.00332e-08
2.93552e-08
2.86416e-08
2.9845e-08
2.92861e-08
3.03214e-08
2.88203e-08
2.88657e-08
2.77595e-08
2.8802e-08
2.51749e-08
2.61693e-08
2.82554e-08
3.3895e-08
2.8249e-08
2.73486e-08
2.81823e-08
2.89744e-08
2.98519e-08
2.98193e-08
2.8949e-08
2.96264e-08
2.8587e-08
2.98939e-08
2.81052e-08
3.03612e-08
2.8481e-08
3.03639e-08
2.80426e-08
2.91323e-08
2.83765e-08
2.84412e-08
2.75532e-08
2.83859e-08
2.77309e-08
2.91549e-08
2.81378e-08
2.91831e-08
2.99952e-08
3.1337e-08
3.00728e-08
2.9442e-08
2.98624e-08
3.01003e-08
2.90985e-08
2.9754e-08
2.93252e-08
3.0159e-08
2.97143e-08
3.05231e-08
2.95501e-08
3.15114e-08
2.94511e-08
3.0766e-08
3.08332e-08
3.08172e-08
2.96717e-08
3.11766e-08
3.07593e-08
3.0318e-08
2.96977e-08
3.03286e-08
3.07705e-08
3.07622e-08
2.96395e-08
2.97789e-08
2.91477e-08
2.9618e-08
2.89919e-08
2.88719e-08
2.81141e-08
2.92455e-08
2.53009e-08
2.42376e-08
3.34151e-08
3.17311e-08
2.71756e-08
2.81945e-08
2.76154e-08
2.98114e-08
3.0403e-08
2.98675e-08
3.04963e-08
2.95833e-08
3.0266e-08
2.9196e-08
3.01776e-08
2.87179e-08
2.99371e-08
2.88221e-08
2.96907e-08
2.86517e-08
2.88827e-08
2.85281e-08
2.95309e-08
2.72171e-08
3.00118e-08
2.8127e-08
3.00427e-08
2.86087e-08
3.17458e-08
2.87481e-08
3.14089e-08
2.95918e-08
3.20586e-08
2.88347e-08
3.0183e-08
2.83956e-08
2.93068e-08
2.88839e-08
2.93186e-08
2.93299e-08
2.98467e-08
2.98872e-08
3.04662e-08
3.01623e-08
3.20305e-08
3.01155e-08
3.12465e-08
3.06929e-08
3.08837e-08
3.00657e-08
3.0244e-08
2.96721e-08
3.03646e-08
3.00708e-08
2.92688e-08
2.9099e-08
2.97062e-08
2.89807e-08
2.98162e-08
2.8767e-08
2.89663e-08
2.81874e-08
2.83651e-08
2.52248e-08
2.60871e-08
2.83828e-08
3.36132e-08
2.78783e-08
2.75037e-08
2.83575e-08
2.91151e-08
3.02752e-08
2.94507e-08
2.99179e-08
2.91359e-08
2.87297e-08
2.97487e-08
2.82813e-08
3.10055e-08
2.83757e-08
3.04942e-08
2.86195e-08
3.01295e-08
2.78589e-08
2.91674e-08
2.79172e-08
2.87737e-08
2.80733e-08
2.85875e-08
2.80341e-08
2.8891e-08
2.85777e-08
2.90145e-08
3.04413e-08
3.10568e-08
2.96079e-08
2.9517e-08
2.96182e-08
3.02368e-08
2.94163e-08
3.02505e-08
2.97486e-08
3.0069e-08
2.96042e-08
3.06225e-08
2.9889e-08
3.1408e-08
2.96788e-08
3.06442e-08
3.109e-08
3.0898e-08
2.99185e-08
3.14257e-08
3.05759e-08
3.04276e-08
2.99483e-08
3.04345e-08
3.07507e-08
3.05842e-08
2.94479e-08
2.97462e-08
2.91858e-08
2.9816e-08
2.89362e-08
2.89345e-08
2.80055e-08
2.90271e-08
2.48813e-08
2.43192e-08
3.31838e-08
3.23713e-08
2.80574e-08
2.8636e-08
2.75165e-08
2.91612e-08
3.02695e-08
2.88554e-08
3.12731e-08
2.88401e-08
3.107e-08
2.80521e-08
3.02879e-08
2.85468e-08
3.01355e-08
2.9112e-08
2.97767e-08
2.87583e-08
3.01566e-08
2.91957e-08
2.89749e-08
2.80748e-08
2.84564e-08
2.7945e-08
2.95177e-08
2.81834e-08
3.01918e-08
2.83341e-08
3.18932e-08
2.92462e-08
3.15616e-08
2.99417e-08
3.14095e-08
2.94709e-08
2.99788e-08
2.87638e-08
2.98375e-08
2.9073e-08
2.96862e-08
2.92985e-08
3.00065e-08
2.97743e-08
3.07362e-08
3.0337e-08
3.2407e-08
3.00949e-08
3.1525e-08
3.02667e-08
3.10164e-08
2.97215e-08
3.04877e-08
2.98095e-08
3.06423e-08
3.01862e-08
2.95666e-08
2.88805e-08
2.98334e-08
2.86676e-08
2.97576e-08
2.90094e-08
2.8839e-08
2.80417e-08
2.86659e-08
2.51792e-08
2.59367e-08
2.82635e-08
3.34546e-08
2.81928e-08
2.75436e-08
2.8122e-08
2.88563e-08
3.03868e-08
2.90362e-08
3.09635e-08
2.88991e-08
2.93981e-08
2.93346e-08
2.89456e-08
3.03303e-08
2.83689e-08
3.00939e-08
2.85762e-08
3.11245e-08
2.80646e-08
2.989e-08
2.85927e-08
2.91356e-08
2.79717e-08
2.83763e-08
2.83117e-08
2.82488e-08
2.80329e-08
2.89244e-08
2.8695e-08
2.93915e-08
2.90427e-08
3.10503e-08
2.94703e-08
3.07492e-08
2.9799e-08
2.99979e-08
2.89115e-08
3.00941e-08
2.94174e-08
2.92091e-08
2.96563e-08
3.02538e-08
2.96967e-08
3.13231e-08
2.97889e-08
3.03685e-08
3.09315e-08
3.10508e-08
2.98201e-08
3.13663e-08
3.0628e-08
3.04885e-08
3.01525e-08
3.02554e-08
3.08272e-08
3.0451e-08
2.92726e-08
2.97174e-08
2.90388e-08
2.95083e-08
2.90151e-08
2.89826e-08
2.80955e-08
2.94592e-08
2.52176e-08
2.4366e-08
3.3641e-08
3.28817e-08
2.81026e-08
2.83861e-08
2.75872e-08
2.878e-08
3.00648e-08
2.81595e-08
3.20196e-08
2.81933e-08
3.17228e-08
2.72254e-08
3.0704e-08
2.77079e-08
3.04437e-08
2.84781e-08
2.97527e-08
2.86762e-08
2.94305e-08
2.91812e-08
2.91235e-08
2.87255e-08
2.88493e-08
2.8276e-08
2.9153e-08
2.74907e-08
2.99829e-08
2.77429e-08
2.98583e-08
2.85058e-08
3.12077e-08
3.02957e-08
3.10235e-08
2.97413e-08
3.07889e-08
2.91472e-08
3.0274e-08
2.86166e-08
2.94353e-08
2.92424e-08
2.94637e-08
2.957e-08
3.02785e-08
2.97161e-08
3.06926e-08
3.02977e-08
3.21966e-08
2.98637e-08
3.14895e-08
3.0801e-08
3.07701e-08
2.97864e-08
3.058e-08
2.95472e-08
3.07117e-08
3.02032e-08
3.00382e-08
2.89655e-08
2.93475e-08
2.85781e-08
2.96952e-08
2.88112e-08
2.86235e-08
2.83906e-08
2.84036e-08
2.52537e-08
2.62797e-08
2.8087e-08
3.30075e-08
2.87673e-08
2.82621e-08
2.84009e-08
2.87229e-08
3.0363e-08
2.87094e-08
3.17077e-08
2.89308e-08
2.94177e-08
2.97145e-08
2.89406e-08
2.97322e-08
2.86755e-08
3.03557e-08
2.85857e-08
3.03032e-08
2.84879e-08
3.06149e-08
2.81286e-08
2.97968e-08
2.91269e-08
2.94671e-08
2.76346e-08
2.84237e-08
2.85238e-08
2.82133e-08
2.85572e-08
2.89813e-08
2.87717e-08
3.00023e-08
2.98563e-08
3.10482e-08
2.96373e-08
3.05201e-08
2.95819e-08
3.0323e-08
2.92841e-08
2.96474e-08
2.90095e-08
2.96371e-08
2.95549e-08
3.01167e-08
2.9771e-08
3.10473e-08
2.99469e-08
3.04283e-08
3.11764e-08
3.07683e-08
2.93572e-08
3.12646e-08
3.07334e-08
3.06693e-08
3.0115e-08
3.03028e-08
3.07919e-08
3.00789e-08
2.92182e-08
2.98115e-08
2.90045e-08
2.95956e-08
2.88394e-08
2.88859e-08
2.7851e-08
2.90084e-08
2.51062e-08
2.47858e-08
3.41298e-08
3.29835e-08
2.75539e-08
2.85858e-08
2.73203e-08
2.82562e-08
2.98116e-08
2.74496e-08
3.18737e-08
2.82234e-08
3.17806e-08
2.72945e-08
3.06177e-08
2.73947e-08
3.09703e-08
2.80138e-08
3.04079e-08
2.86173e-08
2.98647e-08
2.88653e-08
2.96214e-08
2.93881e-08
2.97729e-08
2.83025e-08
2.87134e-08
2.80862e-08
2.8558e-08
2.82183e-08
3.01357e-08
2.79552e-08
2.99248e-08
2.90846e-08
3.09674e-08
2.90476e-08
3.12393e-08
3.00808e-08
3.08945e-08
2.93314e-08
2.99256e-08
2.86802e-08
2.98786e-08
2.93994e-08
2.95812e-08
2.96604e-08
3.00468e-08
2.95784e-08
3.07079e-08
3.02914e-08
3.20317e-08
3.00109e-08
3.15734e-08
3.06711e-08
3.10442e-08
2.96209e-08
3.06875e-08
2.9374e-08
3.07566e-08
3.00396e-08
3.02726e-08
2.91158e-08
2.92165e-08
2.86101e-08
2.94511e-08
2.88372e-08
2.91226e-08
2.81755e-08
2.87861e-08
2.49902e-08
2.6807e-08
2.85343e-08
3.30447e-08
2.95974e-08
2.84995e-08
2.87183e-08
2.85475e-08
3.0343e-08
2.8459e-08
3.18649e-08
2.92802e-08
2.97116e-08
2.94601e-08
2.95165e-08
2.99602e-08
2.93427e-08
2.96967e-08
2.8507e-08
2.98653e-08
2.86386e-08
3.02986e-08
2.84992e-08
3.04212e-08
2.80597e-08
2.94204e-08
2.88601e-08
2.9324e-08
2.78634e-08
2.89158e-08
2.80417e-08
2.81998e-08
2.84085e-08
2.91489e-08
2.88896e-08