/*--------------------------------*- C++ -*----------------------------------*\
| =========                 |                                                 |
| \\      /  F ield         | OpenFOAM: The Open Source CFD Toolbox           |
|  \\    /   O peration     | Version:  2206                                  |
|   \\  /    A nd           | Website:  www.openfoam.com                      |
|    \\/     M anipulation  |                                                 |
\*---------------------------------------------------------------------------*/
FoamFile
{
    version     2.0;
    format      ascii;
    arch        "LSB;label=32;scalar=64";
    class       volScalarField;
    location    "160";
    object      ducSensor;
}
// * * * * * * * * * * * * * * * * * * * * * * * * * * * * * * * * * * * * * //

dimensions      [0 0 0 0 0 0 0];

internalField   nonuniform List<scalar> 
93840
(
0.450563
0
0.448663
0.0114721
0
0.40627
0
0.329777
0
0.401074
0.364565
0
0.257331
0
0.372992
0
0.0261914
0
0
0
0.324945
0
0.0248321
0.00331912
0
0.0156178
0
0.288778
0.00155384
0
0.0113317
0.0914788
0
0.024935
0
0.259233
0
0
0.0818725
0.0497122
0.0228719
0
0.0387181
0
0.232728
0
0.0286184
0.00627716
0
0
0.0164827
0
0.0373085
0
0.203387
0.0182556
0
0
0
0.0343572
0
0.0495147
0
0.0729015
0
0.203797
0.0176453
0.05525
0.0455512
0.224567
0
0.0237051
0
0.0603851
0
0.0884871
0
0.248977
0
0.0344838
0
0
0
0
0.0528633
0
0.0557045
0
0.0756136
0
0.30822
0.0114432
0
0
0
0.00335355
0.0337528
0
0.00392982
0
0
0.0143093
0
0
0.343999
0
0.0726934
0.0211558
0.0962941
0.0175678
0
0.00428261
0
0
0
0
0.0293958
0
0.162033
0.343079
0.00865954
0
0
0
0
0.0244627
0
0
0.0209939
0
0.0415073
0
0.0404563
0
0.205567
0.306646
0
0.0133023
0.00969171
0
0.0322119
0
0.00302705
0
0.00621882
0
0.00615793
0.0219946
0.0492157
0.087449
0
0.269169
0.217107
0
0
0.101713
0.0475389
0
0.029759
0
0.0029501
0.0101574
0
0.0575477
0
0.0369401
0.0195856
0.0580648
0.0343451
0.281184
0.126781
0
0
0
0
0.0202171
0
0
0.0161942
0.0126619
0.0252289
0
0
0
0.0709991
0
0.0850871
0.0511899
0.310164
0.0874411
0
0
0
0.0587612
0
0.0257724
0.0128198
0.0287612
0.00887777
0
0
0
0.0473957
0
0.0440725
0
0.11142
0.0488064
0.323165
0.0285485
0.0503258
0
0.0169595
0
0.0300069
0
0
0.00725095
0
0.0249953
0
0.0127343
0
0
0.00507192
0.064578
0.0422087
0.0906292
0.0511906
0.338079
0.00363297
0.0390679
0.0116925
0.0508588
0.0280723
0
0.00845388
0.0132963
0.00819097
0.00173261
0.0233754
0
0
0.0401637
0
0.0116384
0
0.0642842
0.0491145
0.0981826
0.0545726
0.336803
0
0
0.0127723
0
0
0.0259554
0.00116868
0
0
0.0126228
0.000969258
0
0
0.000516505
0.0240375
0.00921393
0.088363
0.0235615
0.0435884
0.041382
0.0953826
0.0773812
0.33489
0
0.0523332
0.00287291
0.0297196
0.0363728
0
0
0
0.0317582
0.00705997
0.0180866
0.0444063
0.00242617
0
0
0.0488923
0
0.0999736
0.0107434
0.0661172
0.0586182
0.104407
0.0733717
0.358261
0.0614256
0
0.0330179
0
0
0.00267943
0
0
0
0
0.00318357
0
0
0.0147898
0.032458
0.0511487
0.0101108
0.00452959
0
0.0393032
0.0317086
0.0388498
0.112347
0.0865111
0.41687
0.226728
0
0
0
0.0395872
0
0
0
0.0157369
0.0205476
0.0471325
0.00862596
0.00261238
0.0220554
0.0425698
0.0249619
0.0338709
0.00359178
0.0455556
0.0195509
0.0102424
0.0562372
0.0773363
0.123586
0.116292
0.061254
0
0
0.000709118
0.0192522
0
0
0.00484351
0
0.00687737
0
0
0
0.0224201
0.00214979
0.0239194
0.00741525
0.0515646
0
0.035966
0
0.0713224
0.0455926
0.0383474
0.0724925
0.116928
0.108982
0
0
0
0
0
0.0344742
0.0118002
0
0
0.0128177
0
0.00323444
0
0.0147548
0.00522424
0.0375483
0.0504116
0
0.0484351
0
0.0196472
0.0291467
0.0213829
0.023627
0.0617183
0.0757386
0.0892179
0.0603634
0.315057
0
0.0279546
0
0.0272146
0
0
0.0106087
0.0134592
0.00750242
0
0.0212833
0
0.0229767
0
0.0296595
0.00340815
0.0316887
0.000152851
0
0.0522614
0.0587679
0
0.0161728
0.0481156
0.0495377
0.0674944
0.0638221
0.0239411
0.352051
0
0
0.0120733
0
0.0302233
0.0111641
0
0
0
0
0.0301151
0.00996572
0.0219449
0.0148294
0.0290793
0
0.0184327
0.0291803
0.0257704
0
0
0.00181049
0.0169049
0.0181462
0.0298662
0.0631316
0.0594109
0.0399577
0.016507
0.294066
0
0.0344033
0.0281729
0.0208524
0
0.00256036
0.0100096
0.0169209
0.0178696
0.000622909
0.0365554
0.00439935
0
0
0.0215881
0
0.0354775
0.0239116
0.0608728
0
0.0161538
0.0459253
0.0288235
0.0161508
0.000412693
0.0508687
0.0564079
0.0580731
0.0541722
0.00986047
0.283574
0
0.0287845
0
0
0.0153028
0.0018569
0.00248014
0
0
0
0
0
0.0136026
0.0586662
0
0
0.0453306
0
0
0.047117
0
0.0355844
0
0.0119522
0.0146707
0.0271294
0.049058
0.0621161
0.0549275
0.050251
0.00365092
0.247232
0
0.0155928
0
0.0283452
0.0119827
0.0196205
0.0117767
0
0.004998
0.0245591
0
0.0313718
0.0109661
0
0.076827
0
0.020239
0
0.0291597
0
0.0438036
0.0220889
0.0355521
0.00949604
0.0543797
0.0376359
0.0467374
0.0451991
0.0609777
0.0480416
0.0656539
0
0.247564
0
0.0612168
0.00659021
0
0.0193196
0
0.00398544
0.00495834
0
0
0
0.024731
0
0.0172466
0
0.0211349
0.00800581
0.000112947
0.0353436
0.0174058
0.00570877
0
0
0
0.036007
0.00588234
0
0.0395699
0.0431895
0.0639887
0.0489714
0.0343519
0
0.214584
0
0
0
0.037341
0.0155988
0.00300771
0
0
0
0
0.00541551
0.00637845
0.0429175
0
0
0
0.00181919
0.00800535
0.0176498
0.000976913
0.0289282
0.0087411
0.0115291
0.0557543
0.0106639
0.0256967
0.0295547
0.0132776
0.00319944
0.0418557
0.055929
0.0508178
0.0481667
0
0.223431
0
0.0181329
0.0124701
0
0.0184124
0
0
0.00823326
0.0269324
0
0
0.0329797
0.0232497
0
0
0.0412029
0
0
0
0.0555772
0
0.0585751
0.0296529
0.00518064
0.0246169
0.00221174
0
0.148351
0.023699
0.0278842
0.0489785
0.056001
0.0466775
0.00570663
0
0.1969
0
0
0
0.022043
0
0
0
0
0.00633175
0
0.0369881
0
0.0187498
0
0.0659531
0.0232398
0
0.0242032
0.000554056
0
0.0141847
0
0.0300462
0.0230778
0.0311132
0.0583227
0.0288702
0
0
0.032365
0.043792
0.0461534
0.0566503
0.0444611
0.00662421
0
0.211829
0
0
0.0227866
0
0.00702823
0.000890821
0
0.0176551
0.0240596
0.0222465
0.00919739
0.00576406
0
0
0
0
0
0.00943764
0
0.01598
0
0.0331777
0
0.0335955
0.0409197
0.00642733
0.0233866
0.04152
0
0
0.0209626
0.0164671
0.0500739
0.0712803
0.0465651
0.00882194
0
0.18543
0
0.0100484
0
0.0354258
0
0
0
0
0
0
0.00498015
0
0
0.036277
0.0588231
0.0183538
0.0244063
0.0553426
0.00350231
0.00923562
0
0
0
0
0
0.0281641
0
0.00325714
0
0
0.00972461
0.021146
0.028294
0.046933
0.0291804
0.0503037
0.00401296
0
0.204474
0
0
0.0310505
0.048649
0.00361032
0.00877433
0.00937394
0.0307639
0.0235396
0.00589459
0.0233979
0
0.0143641
0.00875651
0
0.0999913
0
0
0
0
0.00367926
0.0239517
0
0
0.0289512
0.0143662
0
0.0468476
0
0.00838734
0.0154342
0
0.0014659
0.0951204
0.0452134
0.0520716
0.0470247
0.0313353
0
0.183732
0
0.0404355
0
0.0150365
0
0
0
0
0
0
0
0
0
0
0.00926722
0.00503032
0.00180387
0
0.0348257
0.0703483
0
0
0
0
0.000261233
0
0
0.0452042
0
0
0.00743661
0
0
0.0132331
0.00484182
0.0619579
0.03655
0.053808
0
0
0.203939
0
0
0.066085
0
0
0.0126669
0
0.0309646
0
0.0315897
0.0446926
0
0.0690456
0.0281726
0
0.034588
0.00678251
0
0.0354692
0.0446179
0
0
0.0725608
0
0.0343634
0
0.0434326
0.00893115
0.00447989
0.0317524
0
0
0
0.00249638
0.0470969
0.0710135
0.0598412
0.00314267
0.0392049
0.071641
0
0.178082
0
0.0273885
0.00422705
0.0145878
0.00800625
0.000214119
0
0.0113738
0
0
0.00821359
0
0
0
0.0657989
0
0.00180362
0.0336875
0
0.018081
0
0
0.0621961
0
0.0999754
0
0
0
0.0239862
0.0592454
0
0
0
0.0114336
0.032017
0.0393137
0.0289434
0.0620431
0.00594092
0.0633757
0.00352857
0
0.19872
0
0.0105774
0.053567
0
0
0.000657528
0
0.023575
0
0.00616839
0.0105774
0
0.0302294
0.0431193
0
0
0.0171439
0
0
0
0
0.0112031
0.0301451
0
0
0
0
0.0413921
0.0150758
0
0.018846
0
0
0
0
0.00931873
0.00610718
0.0525883
0.0547872
0
0.036643
0
0
0.176521
0
0.0381591
0.0141452
0
0.0185159
0
0.00161577
0.0111508
0
0
0
0
0.0341555
0
0.01063
0
0.0629825
0
0.0200862
0.000326424
0.0748637
0
0.014033
0
0.02282
0.129276
0
0.199304
0
0
0
0
0
0
0.0068382
0.00963592
0.0645224
0.0166201
0.0152253
0.0667032
0
0.0392396
0
0
0.193929
0
0.034807
0.0458231
0.0142826
0.00914953
0.00849826
0.00996126
0.0248349
0
0.019303
0.0203052
0.0288545
0.0300345
0.0327532
0
0.0439497
0.080552
0.0133863
0.0600138
0.0200228
0
0.0250077
0.00357297
0.0304993
0
0.00668062
0.0470861
0.0239424
0
0.082306
0
0.0299182
0
0
0
0.0543837
0
0
0.00341863
0.00509492
0.0332603
0
0.053523
0
0
0.169714
0
0.00611072
0.0513372
0.0450213
0.00278696
0
0
0
0
0
0.00775238
0
0.00175854
0
0
0
0
0
0
0
0.0319345
0
0
0.0729803
0.00893942
0
0.0427715
0.143396
0.100006
0.0361318
0.143983
0
0
0
0.020713
0
0.0382736
0.0482778
0.00868929
0.0257728
0
0.04822
0
0.0135347
0
0
0.190626
0
0.0284664
0.0348933
0
0.00199298
0
0
0.0144341
0
0.0208405
0.0156592
0
0
0.0227297
0
0.0306189
0.0174132
0
0.0623976
0
0
0
0
0
0
0.0577988
0
0.0392569
0
0
0.00663268
0
0
0.0258526
0
0.0326378
0.00141494
0.0316162
0.00818115
0
0.0545515
0
0.0336894
0
0.0358904
0
0
0.171159
0
0.0232952
0.0211678
0.0300087
0.00568209
0
0.011302
0
0
0
0
0
0.0175341
0
0
0
0
0.00634804
0.0104993
0
0
0
0.046019
0.00112757
0.03116
0.0553746
0.0396276
0.0504646
0.0127597
0
0
0.0377442
0.0724699
0
0.0398453
0
0.0536293
0
0
0
0.0200895
0.00278799
0
0.0509693
0
0.00157198
0.0375914
0
0.20226
0
0.0316409
0
0.0403159
0
0
0
4.79272e-05
0
0.0168623
0.0143434
0
0
0
0
0
0.0162757
0
0.00306748
0
0
0.0543444
0.0160567
0
0.0182084
0.0075442
0
0
0.0165305
0.047536
0
0.0180348
0.0221297
0.0197296
0
0.030492
0.000714298
0
0.018683
0
0.0998417
0
0
0
0.0406922
0
0
0.0173508
0
0.186873
0
0
0.104926
0.0404706
0.00938436
0.0045525
0.00487654
0
0.00813846
0.00038878
0
0
0
0.0172958
0
0
0
0
0.0258377
0
0.0095886
0
0
0.0265991
0.00627307
0
0.00963485
0.0663475
0.0283435
0.0133169
0
0.016326
0
0
0.0229166
0
0
0.00955433
0.100006
0.0176741
0
0
0.0287176
0
0
0.0494734
0
0.0141531
0.0183737
0
0.211242
0
0.0364903
0
0.0191167
0
0
0.00883883
0
0.000659869
0.00505206
0.0162178
0.0193902
0.0383183
0
0.060219
0.0317115
0
0
0.0154182
0
0
0
0.0363676
0
0
0
0
0.00145403
0
0
0
0.0524903
0.0556935
0.035986
0
0.0767836
0.0118721
0
0.00980506
0.0590296
0.0163623
0.0158153
0.0224317
0.0385371
0
0
0.0412109
0
0.0103405
0.0419186
0
0.185778
0
0
0
0.0754541
0
0
0.00265958
0
0.0069559
0.00304321
0
0.0122344
0
0.0191629
0
0
0
0
0.0292174
0
0
0
0
0.00221839
0.0543231
0
0
0.00729965
0.0227257
0.00829828
0.0200578
0
0.0154591
0.0252843
0.0336838
0.0077939
0
0.00181561
0.0164257
0.0284299
0.0250461
0
0
0.0775853
0
0.0162872
0
0.0249107
0.0167864
0.00119027
0.0251112
0
0.204644
0
0.0337872
0
0.0586457
0
0.0182006
0.00835619
0
0
0.00726047
0.0259625
0.0266062
0
0
0
0
0
0.0210478
0
0
0
0.0260523
0.0522755
0.0418283
0
0.0139289
0.0995485
0.0377949
0
0
0.00193551
0.0414045
0
0
0
0
0
0.0292403
0.00349086
0.0244964
0.00619412
0.0218248
0
0
0.022412
0.0298748
0.0353603
0
0.0090944
0.0365226
0
0.0278149
0
0.178694
0
0
0.020958
0.0153797
0
0.00957765
0.0105569
0.000234012
0.00808667
0
0
0.0999371
0.00102598
0.00734698
0
0.0158751
0
0
0
0.0160326
0
0
0.073965
0
0
0
0
0
0
0.00818534
0
0
0
0
0.0936133
0
0
0
0
0
0.0036412
0.0197706
0
0
0
0
0
0
0.0134293
0
0.0416555
0
0.0292335
0
0.201766
0
0
0.000961307
0.042739
0
0
0
0.00912319
0.00634074
0.00322539
0.00736313
0.0161988
0
0.0455264
0
0
0
0.0046013
0
0
0.0752304
0.0679948
0.0207665
0
0
0.0269053
0.0308112
0
0
0.0273402
0.18242
0
0
0
0.0382121
0.00641944
0
0
0
0.059997
0.00666521
0.0125293
0.0492711
0
0
0.0386918
0.0485431
0.0347401
0
0.0183644
0
0.0452929
0
0.0299417
0.000238679
0.175916
0
0.0207898
0
0.0853737
0
0
0.00615109
0.012895
0.0086532
0
0
0.000970903
0.124131
0
0
0.00982287
0.0367761
0
0
0
0
0
0
0
0
0
0.0264651
0
0.0565793
0.0285028
0
0
0
0.0182052
0
0.0258947
0
0
0.000239081
0
0
0.0110201
0
0
0
0
0
0
0.0300836
0.00709304
0.0371825
0
0.0454315
0.0174105
0
0
0.199885
0
0.000858306
0.0348169
0.0509724
0
0
0
0
0
0
0
0.0295253
0.00832486
0
0
0.0264819
0
0.0315998
0
0.00704562
0
0.0277762
0
0
0
0
0.0771659
0.0337762
0.0369787
0.0223563
0.0493957
0.129746
0
0
0.056292
0.000340564
0
0.0427139
0
0
0.0578397
0.00414941
0.0332293
0.0113457
0
0
0
0.0477816
0.0419961
0
0
0.0717645
0
0.0514436
0.0296345
0
0
0.178256
0
0.0173457
0.0206397
0.0386159
0
0.00562441
0.00768525
0.0114436
0
0
0
0.0474272
0
0
0.0338616
0.0423139
0.0218182
0
0
0.0146814
0
0.0176513
0
0
0.000436801
0.183952
0
0
0.0206225
0
0
0
0.0208282
0.0747408
0.0150024
0
0.0212149
0.00823327
0.113548
0
0
0
0.0395997
0
0
0
0
0
0
0
0.0626725
0.0133389
0.0342996
0
0.0485796
0.0325424
0
0
0.201519
0
0.0210955
0
0
0
0
0
0
0
0.00692966
0
0
0
0.0567428
0
0.000186793
0.060389
0
0.123955
0
0.0212891
0
0.0167357
0
0.051649
0
0
0
0.0476804
0.000179594
0
0
0
0
0.106747
0
0.034407
0.00330247
0
0
0
0
0.099967
0.0401527
0.0194706
0.0133871
0.0189319
0
0
0.0616414
0.00935776
0.00447186
0.0310758
0.0711829
0.0194137
0.0118932
0.0240701
0.0433086
0
0.176855
0
0
0
0.0333592
0.010083
0.0122796
0.0165056
0.0152754
0.000878414
0.000774122
0
0.0561053
0.0152038
0
0
0
0.08672
0
0
0.117884
0.0575835
0
0
0.00971525
0.0113144
0.0238262
0.00684682
0
0
0
0.0866623
0.178499
0.0443374
0
0
0
0
0
0.0550924
0
0.0600118
0.0146116
0.0132864
0
0.121376
0
0.020615
0
0
0
0.00995743
0
0.019323
0.00448766
0.0644661
0.0284026
0.00702581
0.037243
0.018061
0
0.195469
0
0
0.0165544
0.0535011
0
0
0
0
0
0
0
0.0338508
0
0.0588668
0
0.0636802
0
0.0131509
0.0475548
0
0.000976193
0.0707798
0
0
0.0122609
0
0
0
0
0.0618968
0.0111419
0
0
0.0204621
0.00283162
0
0.028111
0.042711
0.0544885
0.0448003
0.00182037
0.0395754
0
0
0
0
0.00609351
0
0.00446069
0
0
0.017736
0.000849897
0
0.0120304
0.0916593
0.0496407
0.00764701
0.0533517
0.00831031
0
0.166119
0
0.0184273
0
0
0
0.0130975
0.0203094
0.0108103
0.0121337
0.00778387
0.0127453
0.0344525
0.0147024
0
0
0.0517591
0
0.0515432
0
0
0.179469
0
0
0
0
0.0243047
0
0
0
0
0
0
0.083032
0
0
0.0427409
0.0524189
0.0513763
0.0142701
0
0
0
0
0
0
0.180952
0
0
0.00607439
0
0
0
0.0145953
0
0.0227698
0.0231466
0.00837848
0.0499555
0
0.0436336
0.0084624
0
0.186188
0
0.0172996
0.0458333
0.0344668
0.0214159
0.00438048
0
0
0
0
0
0.0409228
0
0.0743123
0
0
0
0.0365289
0
0
0.103273
0
0.0157493
0
0
0.035264
0
0.0999373
0
0
0
0
0
0
0.0233624
0.0262833
0
0
0.0369871
0.081593
0
0.0110213
0
0
0
0.00616623
0
0.0405748
0
0.034493
0
0
0
0
0
0.0164099
0.0187032
0.0733187
0.0507089
0
0.0481106
0.0278765
0
0.158869
0
0
0
0.000635292
0
0.0171312
0.00769839
0
0.00381413
0.0050447
0.0412868
0.00995384
0
0
0.00598753
0
0
0.0369618
0.0236158
0.0520497
0
0
0.04049
0.150574
0
0.100047
0
0
0
0.0358268
0
0.0257791
0
0.164056
0
0.0697832
0.0738555
0
0
0.0475141
0.0245714
0.0781317
0.00509582
0.0428646
0
0.0076092
0.0187154
0
0.142471
0
0.00278443
0
0
0
0
0
0.0133354
0.00525663
0.0150051
0.0603385
0.025056
2.91509e-05
0.028733
0
0.183067
0
0.0334356
0.0393087
0.0210786
0.00225805
0
0
0
0
0
0
0.0379213
0.030903
0
0
0
0.0170326
0.0466741
0
0
0
0
0.0089127
0
0
0.0997405
0
0.0490556
0
0
0
0
0.0534108
0
0.0121877
0.0529521
0
0
0.054726
0.11989
0
0
0
0
0.00745191
0.00702342
0.0310273
0
0.029699
0
0.00648419
0.0269365
0
0
0
0.0255716
0
0.0079711
0
0.012174
0.0520885
0.0398491
0.0319522
0.00294931
0
0.160118
0
0
0
0.0352861
0.014884
0
0
0.00504061
0.0152111
0.0186328
0.0731445
0
0.0295545
0
0.0964826
0.0117502
0
0.000466909
0
0
0
0
0
0.00277039
0.0690705
0
0
0
0
0.0999267
0
0
0
0.0500578
0
0.00103891
0.0577758
0
0
0
0.068122
0
0.0227192
0.088597
0
0.0257971
0.00251149
0
0
0.0495903
0.077371
0.00873576
0
0
0.0163858
0
0
0.0174019
0
0.0401266
0.0184306
0.0431636
0.0513536
0.0680115
0.00513412
0
0.186814
0
0.033828
0.0424814
0
0
0
0
0
0
0
0
0
0.0269997
0
0
0
0.0177267
0
0
0.0316391
0
0
0.148397
0
0.0223258
0.0307101
0.0654563
0
0.0282833
0.0236239
0
0
0
0
0
0
0
0
0.0387596
0.0476463
0
0
0
0.0399573
0.124009
0.0672599
0
0
0.0527577
0.00454412
0
0.0220089
0.000494661
0
0.0185487
0
0
0
0
0
0.0113783
0.0373357
0.0419049
0.0358371
0.0214282
0
0
0.162761
0
0
0.00639193
0.0465414
0.0216017
0
0.0113561
0.00537336
0
0.0122753
0.0538143
0.0198928
0.030489
0.0568922
0.00182849
0
0.0404586
0.0115902
0
0
0.027591
0.0737414
0
9.5315e-05
0.0278782
0.0101596
0.0302819
0.00407417
0.239402
0
0.00690906
0
0.147513
0.0057651
0
0.0249557
0.061688
0
0
0.0582224
0
0
0
0
0
0
0.0116723
0.0161632
0
0
0.00194111
0
0.0138184
0
0
0
0.0389226
0
0.0896994
0.0203353
0.0459378
0.0158977
0.0308794
0.0487826
0.0221656
0.0616587
0
0
0.190769
0
0
0.0443318
0
0
0
0
0
0
0
0
0
0.0474319
0
0.0276512
0
0.0333482
0
0.0229431
0.0144696
0
0.00436972
0
0
0.0030151
0.0668455
0
0.0446661
0
0
0.0122356
0
0.0278049
0.0159222
0
0.00945006
0.0445785
0.0359374
0
0
0
0
0.00657404
0
0
0.0956073
0
0
0
0
0
0
0
0
0
0
0.0295256
0.0125761
0
0
0.0375045
0.0918316
0.0442424
0.0276225
0.0542571
0.0156339
0
0
0
0.166169
0
0
0.0320103
0
0
0
0.016307
0.0023001
0.00245085
0.0102563
0.0406701
0
0.0380925
0.00715174
0
0.0917455
0.00162621
0.073935
0
0
0.048959
0
0
0.0393469
0.0116907
0
0
0.0156232
0.0294241
0
0.0390093
0
0.256816
0
0.00991713
0
0.0176032
0
0
0.0967276
0.021421
0
0
0
0
0.0697587
0
0.0232097
0.0467302
0
0
0
0
0.0259548
0.0143883
0
0.0200078
0.011147
0.00216503
0
0.0983399
0.0114171
0.0204044
0.0283001
0.0152094
0.0175901
0.0163657
0.0397395
0
0
0.18903
0
0
0.034382
0.00530783
0
0
0
0
0
0
0
0
0.0419065
0
0.0789453
0
0.0205147
0
0.0619321
0
0
0.0580789
0.00152265
0
0
0.0697438
0
0
0
0.059748
0
0.060452
0.0415896
0
0.061203
0.0290411
0
0
0
0
0
0.0287335
0
0
0
0
0
0.0107698
0.0117834
0
0
0
0
0.0222136
0
0
0.00457857
0
0.0161391
0.0113753
0
0.0431952
0
0.00863007
0.0424712
0.032504
0.00584419
0.0438404
0.0547167
0.0545179
0
0.168063
0
0.0241159
0.0387496
0
0
0
0.01103
0.000552169
0
0.0214844
0.0218592
0.00908349
0.0178432
0.0580641
0.044982
0.0325859
0
0.0396533
0
0.0427868
0.064664
0
0
0
0
0
0
0.0631106
0
0
0
0
0
0
0.00179581
0
0
0
0
0.052595
0.0944061
0
0
0
0.0115687
0
0
0
0.0441973
0
0.0138174
0.00207319
0.0161833
0
0
0.0144024
0
0
0
0.0104525
0
0
0
0
0.0329457
0.0238789
0.0440103
0.000380486
0
0.00860596
0.0169497
0
0.203152
0
0
0.0041101
0
0
0
0
0
0
0
0
0
0.082895
0
0
0
0.017066
0.161141
0.0520754
0.100799
0.0199198
0.035402
0
0
0.0248306
0
0.19893
0
0.0194896
0.0249029
0.135265
0.00368855
0.0123305
0.0436853
0
0.015549
0
0.0379791
0
0
0.0134169
0
0.0641561
0
0
0
0.0250525
0
0
0
0
0.00717358
0
0
0.0120668
0
0
0.0276526
0
0.0130959
0.00306048
0.00661147
0
0.0363824
0.0798879
0.0542057
0.0344103
0.0559868
0.00293862
0
0
0
0
0.22885
0.0636676
0.0181177
0.0304813
0
0.0175592
0.015887
0.029122
0.0040767
0.0136875
0.0149756
0
0.0123449
0.0337553
0.0061711
0.00306787
0
0.0656669
0.00145884
0
0.0302003
0
0
0.0586525
0
0
0.0433649
0
0.0706382
0.116739
0.0207123
0
0.00803977
0.0829639
0
0.00644273
0.0229634
0
0.0572297
0.00278415
0.0460138
0.0151661
0
0.0166016
0
0.0501927
0
0
0.000992841
0
0
0
0.000210083
0.0108206
0.0368322
0
0.0144078
0.0395886
0
0
0
0
0
0.0159784
0.0182247
0
0
0.0305614
0.078012
0.0491726
0.0361273
0
0.0341116
0
0
0.322342
0.259303
0.017817
0.01152
0.0512444
0
0
0
0
0
0
0
0
0
0.0249976
0.0107427
0.173003
0
0
0.0337966
0
0.0175055
0.0183708
0
0
0
0
0.0536367
0
0
0.0402318
0.0390134
0
0.0423287
0.00931377
0
0.0640478
0.0766701
0
0.0178233
0
0
0.0104486
0.0118644
0.0422633
0.0128493
0.00328036
0
0
0
0
0
0.00679712
0.00958946
0
0.106996
0
0.0226527
0.0107499
0
0.0143851
0
0.0258392
0.00457328
0
0.00368155
0.0760971
0.00448311
0.0197803
0.02207
0.0609858
0.0332176
0
0.0539567
0.0375893
0.0151107
0.086049
0
0
0.0344982
0
0.0152434
0.0298996
0.011084
0.0150315
0.00506818
0.0186
0
0.0358123
0.0590643
0
0.00589872
0.100021
0
0
0.0584994
0.0101314
0
0.0135875
0.00582096
0.00442033
0
0
0
0.0018396
0.110578
0
0
0.0620758
0.0999809
0
0.0422567
0
0
0.00988048
0
0
0.0361572
0
0
0
0
0.0282794
0
0.0611836
0.0181584
0
0.0186309
0
0
0
0
0
0
0.00361948
0.0527748
0.00133302
0.0090921
0
0.0366929
0.00957316
0.0324403
0.00414243
0
0.0197859
0.0365518
0.0578956
0.0266428
0.0275376
0
0
0.0844765
0.0803435
0
0
0
0.0081296
0
0
0
0
0.00231857
0
0
0
0
0
0.0496228
0
0.0495763
0
0.078697
0
0
0
0.0111189
0.0171595
0
0.0228889
0.010863
0
0.0150536
0
0.0165645
0.0420025
0.0225755
0.0145772
0.033069
0
0.0359032
0
0
0
0.0663646
0
0
0.0149658
0
0.035723
0.084335
0
0
0.0315463
0
0.017774
0
0.00396226
0
0
0.057586
0
0
0
0
0
0.00934237
0
0.0112704
0
0
0
0.0607946
0
0.038647
0.0419022
0.0618826
0.0622636
0
0
0.0346403
0.0495903
0.206862
0
0.0187002
0.0256327
0.00321282
0.025925
0.0245203
0
0.00586057
0.000547177
0.0115795
0
0.0478839
0.0446257
0.0977164
0.0211763
0
0.00279876
0
0
0.0371676
0
0.0480321
0
0.0603651
0
0.0121336
0.0279435
0.00373247
0.0136013
0
0
0
0.0761405
0
0.0407288
0
0
0
0.0442432
0
0
0.0269778
0
0
0.0151003
0.000999814
0.00320084
0
0
0
0
0.0454671
0
0
0
0
0.00485214
0.0502209
0
0
0.000756058
0
0.0287821
0
0.0212334
0.0243558
0
0
0
0.00382439
0.0250019
0.0456659
0.0174072
0.0377746
0
0
0.0302564
0.0432525
0.247472
0
0
0.0043013
0
0
0
0
0.0173398
0
0
0
0.0184409
0
0.00225931
0
0.0455195
0
0.00809718
0
0
0.0531143
0.113783
0.0295385
0
0.0417722
0
0.0263838
0
0
0
0
0
0.0254186
0
0.00821333
0
0.0109362
0
0.0266928
0
0
0
0
0
0.0150676
0
0
0
0
0.0135685
0
0
0.0242802
0.0321511
0
0
0.000159418
0
0
0.0131683
0
0
0.011848
0.00397697
0
0.0216543
0
0.003901
0
0.0108353
0
0.0239477
0.0416857
0.00988269
0.0120612
0.0350197
0.00612825
0.0298365
0.0410392
0.218673
0
0.00409073
0.0257885
0.0212406
0
0
0
0.0100158
0
0
0
0.0427951
0
0.030324
0.0820058
0.00815943
0.0359678
0.0183646
0
0.0456662
0.00478044
0.046182
0
0
0.0375179
0
0
0
0
0
0
0
0
0.0187042
0
0.0482641
0
0.0355265
0.0302513
0
0
0.00862636
0
0
0
0
0
0
0
0.0165604
0.0197554
0.0221626
0.00722013
0.010546
0.0122348
0.00876339
0.00605696
0.0294135
0.000223595
0
0
0
0
0
0.0365373
0.00525712
0
0
0
0
0.0276864
0
0.0066248
0.0420583
0.00694316
0.0147307
0.0349304
0.019356
0
0
0.203459
0
0
0
0
0.013459
0
0
0.0202243
0
0
0
0.0323147
0.135917
0.0822602
0
0
0
0
0
0.00639797
0.0319671
0
0.0344043
0.0428581
0
0.0625469
0.0427782
0.0422374
0
0.0216818
0.0473174
0
0
0.0583431
0
0.00952025
0.00608391
0
0
0.0450666
0
0
0
0
0
0
0.0251933
0.0650664
0
0
0
0.0385791
0.011212
0.05711
0.0191875
0
0.00200603
0
0
0
0
0
0
0
0.00587066
0
0.0286002
0.0205247
0.0269679
0
0
0
0.0146559
0
0.052663
0.0205347
0.020481
0.0313353
0.028259
0
0
0.178586
0
0.0294566
0.0315949
0.00520893
0
0
0
0.00652561
0
0.0028435
0.0132897
0.0598664
0
0.00335312
0.00463
0.00416019
0.0798148
0.0637956
0.0115339
0.0511844
0
0
0
0.0714008
0.0675323
0
0
0.022414
0.0533172
0
0.0106349
0.0358155
0
0.00143766
0
0.0999597
0.0898769
0.00374881
0.0309994
0
0
0.0325099
0
0
0.0127592
0.00942795
0
0.0750199
0
0.0161395
0.0321161
0
0.0174987
0
0.0248888
0
0
0.0301288
0.00531965
0.0434339
0.00902711
0
0.0278539
0
0
0
0
0
0.0124007
0.00251168
0
0.00436711
0.0281459
0
0.0357301
0.000825426
0.0490734
0.0236985
0.0318347
0.0686417
0.0540422
0.0119482
0.177039
0
0.00226233
0
0
0.0193199
0.00868683
0
0.0242515
0
0
0
0.023355
0
0
0.00105657
0
0
0
0
0
0
0
0.0494048
0.0481853
0
0.0324993
0.0411712
0
0
0
0.00898813
0
0.0631924
0
0
0.0382294
0
0
0.0346326
0.0301819
0
0
0
0
0.0363151
0.0391845
0
0
0.0135
0
0
0
0.00221541
0
0.0256553
0
0
0.0024076
0.0194512
0
0.0096038
0.0159015
0.0427236
0.0593074
0
0
0.003355
0.0316025
0.0649351
0.00209487
0
0
0.00386205
0.00559896
0
0.00821125
0
0.0263773
0
0.0177201
0.0232978
0.0459549
0.0143798
0.139311
0
0.0192126
0
0
0
0
0
0.00265389
0
0.0105781
0.0200955
0.0576963
0.045866
0.035242
0.0998788
0.0700411
0
0.00926238
0.00278435
0.0177398
0.0475732
0.0270822
0
0
0
0
0
0.112059
0.0732335
0
0
0.00322086
0
0
0
0
0.0537796
0.00486846
0.00447038
0.0378065
0.0425173
0.0448056
0
0.0615499
0
0.0423148
0.00974172
0.0101976
0.0385248
0
0.0245056
0
0
0.00804165
0.0193957
0
0.00524841
0
0.0265914
0
0.00201211
0.0131285
0
0.00138516
0
0
0
0.0186246
0
0
0.0140589
0.0035433
0.00316879
0
0.0274985
0
0.0131558
0.00206977
0.0556678
0
0.0033376
0.00200671
0.0217222
0
0.0656848
0
0.0129363
0.0196661
0
0.0315286
0.0117364
0.00446058
0.0242455
0
0
0
0.0137978
0
0
0.108625
0
0.222841
0
0.000806003
0
0
0
0.0361302
0.0512996
0
0.0654247
0
0
0
0.011928
0.0377626
0.0580109
0
0
0
0
0
0
0.112447
0.0351495
0.00127669
0.0465789
0.0361156
0
0.0373096
0.00228135
0
0
0.0647281
0
0.03068
0.005923
0
0
0.0708955
0.0593839
0
0.0480576
0
0.00878803
0
0.0192092
0.131906
0
0
0
0.000158787
0
0.0149693
0.0101882
0.0285876
0
0
0.0161252
0.0143269
0
0
0.0114853
0.0169196
0.0381491
0
0
0.0231968
0.043061
0
0.00256059
0
0
0.0611083
0
0.00571473
0
0
0.0159784
0
0.00462163
0.0261339
0.049018
0.0764485
0.0721143
0.0214127
0.0163487
0.0292709
0
0.0767838
0.0545343
0
0.0648708
0.0812385
0
0
0
0.0306679
0
0
0.00905666
0
0.0431983
0.041962
0.035088
0
0.0256751
0
0.0199703
0
0
0.0588582
0
0
0
0
0.0156505
0.00755668
0
0
0
0.0359571
0
0
0
0
0.0439551
0.0160556
0
0.0102606
0.0495771
0
0.0632593
0
0
0
0.0131527
0
0.0203193
0.0326907
0
0
0.133341
0.0467575
0
0.0047404
0
0.0204303
0.000221509
0.0262042
0.0104619
0.0349445
0.00182719
0
0.0136533
0.0256927
0.00266374
0.0622754
0
0.00808558
0
0.0216676
0.033277
0.00456592
0.000201126
0.0219781
0
0
0
0.0117505
0
0
0
0
0
0
0
0
0.0368808
0
0
0
0.0761521
0.134162
0
0.0418891
0
0
0.0612184
0.025166
0
0.0252557
0.0513221
0
0
0
0.00880857
0.0467934
0.0284584
0.0386897
0
0
0.0689138
0
0
0.00773461
0
0
0.0328267
0
0
0.0283688
0
0
0.0104127
0.0634745
0
0.00869488
0
0.0235181
0
0
0
0
0
0
0.0119214
0
0
0
0
0.00722066
0.0189803
0.00679018
0
0
0.0282395
0.0521472
0.00491526
0.0193481
0
0.000631502
0
0.0344072
0
0.0127246
0
0.0132754
0
0.0118324
0
0
0
0.0151446
0
0.00075956
0.0119467
0.0381487
0.0470178
0.0657608
0.0194293
0.0552238
0.0499864
0.0585495
0.0159172
0.0656063
0
0.0721265
0.0909426
0.0384819
0.0320959
0
0
0
0
0
0
0.113385
0.0718876
0
0.0314485
0
0
0
0
0.0531896
0
0.0266256
0.010548
0
0
0.0123671
0
0.0540608
0.0315276
0
0.00692156
0
0
0.0109472
0.036866
0
0
0.0163493
0.0851427
0
0.0447202
0.0339368
0
0
0.0420452
0.0121222
0.000449659
0.0642098
0.0202156
0.0025764
0.00367948
0
0
0.0155707
0.0519954
0.0283335
0.0420155
0
0.00883845
0
0.00828316
0.0288378
0.0100053
0.00329794
0.0119381
0.00111145
0.0501098
0.0079584
0
0
0
0
0.000344098
0.018578
0.004656
0
0.0219941
0
0
0
0.0167453
0
0
0.139617
0
0.136515
0.0110189
0.112208
0
0.0049229
0
0.0293384
0
0.0609435
0.0674996
0
0.0550696
0
0
0.0432363
0
0
0.0269786
0
0.0392951
0
0
0
0
0.0017754
0.0196597
0.0433357
0
0.0177914
0
0
0
0.0141395
0.0109701
0.140964
0.0925661
0
0.0438589
0
0.0434961
0
0
0
0.0148717
0.0131439
0
0.0919195
0
0.00960831
0.0503339
0.00749293
0.0235616
0
0
0
0
0.0761783
0.0722463
0.0209898
0.0218319
0.0306369
0
0
0.0268798
0.0386506
0.0321889
0.0376278
0.0254595
0
0.0281743
0
0.054154
0.026081
0.0980947
0
0.00617151
0
0
0
0.000224457
0.0167819
0.0151804
0
0.00112927
0.0173219
0.0335231
0.0584011
0.0993734
0
0
0
0
0
0.0691786
0.0174706
0.0193681
0.0164722
0
0.0577779
0
0
0
0.0447617
0
0
0.0282316
0.0261448
0
0.018793
0.0300846
0.0287019
0
0.035848
0.000411968
0
0.0305058
0
0
0.0251463
0.0299379
0
0.0436207
0
0.0352351
0.0597697
0
0
0
0
0
0.0417438
0
0
0
0
0.0266256
0
0.00798053
0.0481047
0.0331984
0.00949705
0
0.00376691
0
0
0
0.0242406
0
0
0
0.0196965
0
0
0.0145208
0.00495702
0
0.00374345
0.0445226
0.0176932
0.0120878
0.0272075
0
0.0485585
0
0.150603
0
0.00346752
0
0.0785423
0.0113018
0.0029017
0
0.00960422
0
0
0
0
0
0
0
0
0
0.102128
0.0572709
0.00503109
0.175667
0
0.119271
0
0.0949668
0
0.134732
0.0176827
0
0.02132
0
0
0.0378136
0.0236626
0.0501806
0.0475017
0
0
0
0
0.0280598
0
0
0
0
0.0442477
0.0355886
0
0.0564955
0.040467
0.0364491
0.0369043
0.00604977
0
0.0922463
0
0
0.0309704
0
0
0
0
0.0232246
0.0217428
0.0402559
0.0220774
0
0.040895
0
0
0.0613032
0
0
0
0
0
0.0272885
0.0366286
0
0
0
0.0962479
0.0127716
0.0231804
0.0473928
0.0538837
0
0.0240068
0
0.0532946
0
0.137268
0
0.0181553
0
0.0258553
0
0.0138052
0.007389
0.00501784
0
0
0
0.0169928
0.0188712
0.0857188
0
0.00999818
0.0363167
0.115408
0.0336439
0.230953
0
0
0.0284473
0.0810253
0
0
0
0
0
0.0394897
0
0.0750766
0
0.0341628
0
0
0.0421488
0
0
0
0
0.0295625
0.0313698
0
0.00156288
0
0.0455155
0.0413663
0
0.0559086
0.0382241
0
0.017339
0.0240203
0.00811317
0
0
0
0.0184541
0
0.0567564
0.00173711
0.0112135
0.0329755
0.0242741
0
0.0339008
0.00442894
0.0239329
0
0.0172786
0
0
0
0
0
0
0.0274003
0.0024191
0.0243936
0.00466824
0
0.00368269
2.19167e-05
0.00385371
0.0395727
0.0412052
0
0.0384597
0
0.0608204
0
0.172154
0
0
0.0048761
0.000190283
0.00119411
0.00642878
0
0.0065053
0
0
0
0
0
0.00229799
0.165245
0
0.115651
0.00978044
0
0
0
0.0631867
0
0
0.240753
0
0
0.255573
0
0
0.021118
0
0
0
0.0211384
0.0498822
0
0.0577975
0
0
0.0180819
0
0
0.0198348
0
0.0638028
0
0.0149447
0.0586977
0.040516
0.0251716
0.0372348
0
0.0427984
0
0.0584718
0
0.0571023
0
0
0
0
0
0.0175551
0
0.0241416
0.0456234
0.00191635
0.0246278
0
0
0.0142748
0
0.037479
0
0
0.0891015
0.0862348
0.002137
0
0
0.00333689
0
0.0312321
0
0.00261446
0.0405687
0.0361832
0.00735357
0.0332051
0
0.0741414
0
0.144236
0
0.0529748
0
0.0219164
0.0069305
0.0100197
0
0.005446
0
0
0.0142027
0.0134069
0.0231692
0.0698284
0
0
0.0087142
0.0270134
0.0491598
0.0618635
0.00190049
0
0
0.0432275
0
0
0.0846487
0.117833
0
0
0
0
0
0.0601518
0
0
0.0469574
0
0.0209333
0
0
0
0.00622541
0
0.0445301
0
0
0
0
0.0551145
0.0398418
0
0.047352
0
0.016497
0.0032642
0.0418683
0
0.0278172
0
0.0507581
0
0
0.0216432
0.0639377
0.0253412
0
0.0288416
0.0796743
0
0.017877
0.0291165
0
0
0
0
0.0408475
0
0
0
0
0.0123385
0.00209033
0.00399839
0.0467403
0.0608653
0.0233705
0.025776
0.0552483
0
0.0329064
0
0.0426313
0
0.165497
0
0.0149606
0.0177585
0.0232399
0.0092441
0.00887671
0
0.00196061
0
0
0
0
0
0
0
0
0
0.0712734
0.0558989
0
0.0698894
0.00625532
0.0999315
0.0293993
0
0.307448
0
0
0.0471336
0.0704343
0
0.144804
0.000337321
0
0.00931598
0
0
0.0223936
0
0.0999543
0
0
0
0
0
0.0543764
0
0.00222215
0
0
0.0449977
0.0451884
0.00979707
0.0297517
0
0.0627184
0
0
0
0.0229476
0.000214006
0.0472613
0.016226
0
0.00580299
0
0.0440433
0
0
0.0153317
0
0.0437581
0
0
0
0
0
0.0244244
0
0
0.00263644
0.00178337
0
0.00035728
0
0
0
0.00933251
0.0316721
0.030111
0
0.0533533
0
0.0275176
0
0.150046
0
0.0234431
0
0.0629012
0.0116667
0
0.0100028
0.000761075
0
0
0.0131253
0
0
0.057707
0.0483817
0.069304
0.0369792
0.0472078
0
0
0
0.0956904
0
0.167704
0.0487853
0.0431019
0
0.0451814
0
0.0670627
0.0767004
0
0.0651741
0
0
0.00649632
0
0
0.0127083
0
0
0.00572668
0
0
0.0130724
0
0.0292796
0
0
0.0412588
0.00152966
0.0524795