/*--------------------------------*- C++ -*----------------------------------*\
| =========                 |                                                 |
| \\      /  F ield         | OpenFOAM: The Open Source CFD Toolbox           |
|  \\    /   O peration     | Version:  2206                                  |
|   \\  /    A nd           | Website:  www.openfoam.com                      |
|    \\/     M anipulation  |                                                 |
\*---------------------------------------------------------------------------*/
FoamFile
{
    version     2.0;
    format      ascii;
    arch        "LSB;label=32;scalar=64";
    class       volScalarField;
    location    "160";
    object      nut;
}
// * * * * * * * * * * * * * * * * * * * * * * * * * * * * * * * * * * * * * //

dimensions      [0 2 -1 0 0 0 0];

internalField   nonuniform List<scalar> 
93840
(
2.09127e-07
2.05244e-09
1.78727e-07
5.70135e-08
3.48414e-09
1.23701e-07
1.25207e-08
4.50003e-08
5.38667e-09
9.79823e-08
5.03435e-08
2.83362e-08
4.28169e-08
9.87772e-09
7.75174e-08
2.41972e-08
3.98258e-08
2.89501e-08
4.67051e-08
1.08696e-08
5.0164e-08
3.1874e-08
2.63036e-08
3.82897e-08
1.97736e-08
5.0234e-08
1.75462e-08
5.1389e-08
2.43731e-08
3.29396e-08
2.71442e-08
3.66762e-08
2.41921e-08
3.85379e-08
1.91823e-08
3.93438e-08
3.22656e-08
2.16305e-08
3.39749e-08
2.45634e-08
3.79303e-08
2.83296e-08
4.4268e-08
2.06375e-08
4.46069e-08
2.48907e-08
3.56014e-08
2.56045e-08
3.41429e-08
2.3541e-08
3.73697e-08
2.72605e-08
3.62966e-08
2.29688e-08
3.70522e-08
3.20014e-08
2.40245e-08
3.34499e-08
2.25863e-08
3.59453e-08
3.04815e-08
3.29581e-08
3.3513e-08
3.77545e-08
2.56848e-08
4.14356e-08
2.49945e-08
3.08066e-08
2.4399e-08
3.52676e-08
2.62667e-08
3.44215e-08
2.733e-08
3.35124e-08
2.85004e-08
3.47746e-08
2.95152e-08
3.41346e-08
3.0987e-08
2.54685e-08
3.19271e-08
2.6992e-08
3.46877e-08
2.99607e-08
3.05121e-08
3.43138e-08
3.07622e-08
3.53109e-08
3.35805e-08
2.78135e-08
3.5014e-08
2.50927e-08
2.98064e-08
2.30138e-08
3.30792e-08
2.46551e-08
3.06927e-08
2.98736e-08
3.40615e-08
2.90449e-08
3.55117e-08
3.13343e-08
3.42325e-08
3.01427e-08
3.08821e-08
3.19041e-08
2.40018e-08
3.21333e-08
2.48962e-08
3.33134e-08
2.98303e-08
3.07159e-08
3.3428e-08
2.89414e-08
3.54086e-08
2.82786e-08
3.46033e-08
3.62806e-08
3.07068e-08
3.05896e-08
2.52152e-08
3.10527e-08
2.56952e-08
3.34214e-08
2.52017e-08
2.90023e-08
2.92514e-08
3.01051e-08
2.93949e-08
3.4196e-08
2.88874e-08
3.54285e-08
3.1545e-08
3.29617e-08
2.91246e-08
2.69596e-08
3.24745e-08
2.35101e-08
3.00559e-08
2.42115e-08
3.12047e-08
2.96779e-08
2.94515e-08
3.15572e-08
3.09624e-08
3.42772e-08
2.94439e-08
3.71611e-08
2.96661e-08
3.25386e-08
3.60014e-08
2.93701e-08
2.66066e-08
2.52569e-08
3.1936e-08
2.52882e-08
3.32434e-08
2.6551e-08
2.86092e-08
2.94548e-08
2.95534e-08
2.90056e-08
3.00702e-08
2.94296e-08
3.4216e-08
2.8776e-08
3.78394e-08
3.21959e-08
3.34108e-08
2.85828e-08
2.46671e-08
3.31708e-08
2.39159e-08
3.30169e-08
2.66986e-08
3.13858e-08
3.02626e-08
2.97225e-08
2.97207e-08
2.98251e-08
3.0887e-08
3.06912e-08
3.31294e-08
2.92015e-08
3.18831e-08
2.7453e-08
3.09943e-08
3.64082e-08
2.91108e-08
2.48896e-08
2.60771e-08
3.25961e-08
2.41226e-08
3.15217e-08
2.74566e-08
2.83592e-08
3.05544e-08
2.97611e-08
2.91637e-08
2.92634e-08
2.8678e-08
2.99951e-08
2.87651e-08
3.5305e-08
3.15568e-08
3.6553e-08
3.10068e-08
3.216e-08
2.83507e-08
2.3241e-08
3.25468e-08
2.46256e-08
3.52725e-08
2.7908e-08
3.08379e-08
3.074e-08
3.03493e-08
3.0194e-08
2.98194e-08
2.98352e-08
2.98554e-08
3.09095e-08
3.06329e-08
3.47992e-08
2.92052e-08
3.09892e-08
2.67805e-08
3.08863e-08
3.35848e-08
2.83108e-08
2.41409e-08
2.6349e-08
3.27132e-08
2.41448e-08
3.04773e-08
2.82164e-08
2.84685e-08
3.06164e-08
3.05818e-08
2.9396e-08
2.95747e-08
2.90671e-08
2.98064e-08
2.8645e-08
3.01772e-08
2.82692e-08
3.41321e-08
3.07488e-08
3.57148e-08
2.99548e-08
3.29587e-08
2.70364e-08
2.28982e-08
3.15333e-08
2.52149e-08
3.42858e-08
2.83935e-08
3.03779e-08
3.1148e-08
3.10183e-08
3.05014e-08
3.03786e-08
3.04667e-08
2.97403e-08
2.96526e-08
3.01217e-08
3.05932e-08
3.07984e-08
3.16198e-08
3.07024e-08
3.04074e-08
2.97e-08
3.01903e-08
3.26997e-08
2.74957e-08
2.40841e-08
2.54508e-08
3.23606e-08
2.34026e-08
3.04978e-08
2.9172e-08
2.88137e-08
3.04394e-08
3.04872e-08
2.95958e-08
3.03681e-08
2.94443e-08
3.00628e-08
2.90475e-08
2.94873e-08
2.84046e-08
3.06365e-08
3.04221e-08
3.37502e-08
3.07076e-08
3.24161e-08
2.90887e-08
3.22176e-08
2.65835e-08
2.29655e-08
3.25407e-08
2.48703e-08
3.63285e-08
2.9548e-08
2.99341e-08
3.12728e-08
3.09954e-08
3.10127e-08
3.16566e-08
3.04028e-08
2.99395e-08
2.99561e-08
2.9873e-08
2.9871e-08
3.0481e-08
2.96367e-08
3.0698e-08
3.01125e-08
2.93898e-08
2.97499e-08
3.0692e-08
2.9464e-08
3.14171e-08
2.6939e-08
2.44325e-08
2.55484e-08
3.25496e-08
2.38165e-08
2.97053e-08
2.95602e-08
2.95221e-08
2.95824e-08
3.01713e-08
2.96848e-08
3.0053e-08
3.00255e-08
3.05237e-08
2.90461e-08
2.97799e-08
2.87726e-08
2.94369e-08
2.84033e-08
3.05019e-08
3.04001e-08
3.52627e-08
3.05374e-08
3.15197e-08
2.86656e-08
3.04506e-08
2.41598e-08
1.98784e-08
3.2929e-08
2.45545e-08
3.58914e-08
3.02846e-08
2.99501e-08
3.05983e-08
3.04076e-08
3.07659e-08
3.05963e-08
3.03932e-08
3.07359e-08
3.03581e-08
3.02353e-08
2.97094e-08
2.93377e-08
2.95804e-08
2.97803e-08
2.95962e-08
3.00851e-08
3.02321e-08
2.83152e-08
2.97121e-08
3.1318e-08
2.90913e-08
3.02338e-08
2.59449e-08
2.27401e-08
2.67643e-08
3.26034e-08
2.4152e-08
2.89818e-08
2.93053e-08
2.94557e-08
2.89923e-08
2.98432e-08
2.95777e-08
3.03768e-08
2.98766e-08
2.98684e-08
2.99034e-08
3.04762e-08
2.90441e-08
2.93633e-08
2.88185e-08
2.93851e-08
2.86501e-08
3.02237e-08
2.98209e-08
3.36847e-08
3.01924e-08
3.10604e-08
2.8457e-08
3.03783e-08
2.68774e-08
2.20271e-08
3.216e-08
2.48117e-08
3.44305e-08
3.09124e-08
2.92436e-08
3.03224e-08
3.00923e-08
2.94208e-08
3.06331e-08
3.07456e-08
3.08647e-08
3.0368e-08
3.06843e-08
3.00459e-08
3.03422e-08
2.96719e-08
2.9416e-08
2.91573e-08
3.00557e-08
2.96198e-08
3.0146e-08
3.02888e-08
3.00695e-08
2.9744e-08
3.0657e-08
2.87909e-08
3.00807e-08
2.64908e-08
2.42962e-08
2.77579e-08
3.1581e-08
2.43848e-08
2.7962e-08
2.87794e-08
2.93879e-08
2.96269e-08
2.95814e-08
2.86702e-08
3.02188e-08
2.9401e-08
3.0116e-08
2.97327e-08
2.99324e-08
2.9691e-08
3.03313e-08
2.90179e-08
2.94917e-08
2.87737e-08
2.91563e-08
2.79343e-08
3.06101e-08
2.96658e-08
3.18602e-08
3.02374e-08
3.05055e-08
2.81433e-08
3.04096e-08
2.57594e-08
2.30062e-08
3.15836e-08
2.44136e-08
3.31671e-08
3.1278e-08
2.85732e-08
3.00599e-08
2.91419e-08
2.94265e-08
3.00136e-08
3.00382e-08
3.05677e-08
3.02699e-08
3.07336e-08
3.00682e-08
3.06189e-08
2.96289e-08
2.98471e-08
2.95792e-08
2.93579e-08
2.93404e-08
3.01794e-08
2.96423e-08
2.99656e-08
2.99738e-08
3.07681e-08
2.97101e-08
3.03081e-08
2.84532e-08
3.01081e-08
2.62571e-08
2.47383e-08
2.77283e-08
3.13083e-08
2.50068e-08
2.74096e-08
2.85958e-08
2.91352e-08
2.95949e-08
2.98683e-08
2.85058e-08
2.96605e-08
2.89896e-08
2.99472e-08
2.99914e-08
2.99655e-08
2.94878e-08
3.03607e-08
2.96368e-08
2.99638e-08
2.87507e-08
2.97904e-08
2.91499e-08
2.9134e-08
2.81858e-08
3.03959e-08
3.00628e-08
3.11255e-08
2.99024e-08
3.05853e-08
2.84993e-08
2.92837e-08
2.59171e-08
2.3435e-08
3.1112e-08
2.41895e-08
3.12891e-08
3.07005e-08
2.75969e-08
2.88847e-08
2.79982e-08
2.89874e-08
2.86674e-08
2.95839e-08
2.90197e-08
2.95474e-08
3.02468e-08
2.99978e-08
3.0843e-08
3.0267e-08
3.01423e-08
2.99665e-08
2.9957e-08
2.92017e-08
2.93086e-08
2.9083e-08
2.99114e-08
2.93505e-08
2.9148e-08
2.96328e-08
3.08017e-08
2.92865e-08
3.02939e-08
2.8838e-08
2.91023e-08
2.57522e-08
2.50199e-08
2.71755e-08
3.16095e-08
2.57749e-08
2.72465e-08
2.83451e-08
2.89183e-08
2.91344e-08
2.96387e-08
2.94991e-08
2.99183e-08
2.91329e-08
2.99961e-08
2.90606e-08
2.96867e-08
2.94573e-08
3.00024e-08
2.96005e-08
3.02678e-08
2.94674e-08
3.0071e-08
2.86816e-08
2.98385e-08
2.89505e-08
2.90434e-08
2.81523e-08
3.00285e-08
2.9698e-08
3.0817e-08
2.93686e-08
3.03568e-08
2.80777e-08
2.93059e-08
2.55869e-08
2.41083e-08
3.09844e-08
2.4997e-08
3.01432e-08
3.01193e-08
2.73139e-08
2.89561e-08
2.80575e-08
2.81943e-08
2.8432e-08
2.93712e-08
2.89553e-08
2.86567e-08
2.93817e-08
2.94583e-08
3.04232e-08
2.97904e-08
3.09676e-08
3.01678e-08
2.98015e-08
2.99307e-08
2.98498e-08
2.90629e-08
2.93065e-08
2.92259e-08
2.97517e-08
2.9089e-08
2.95394e-08
2.93808e-08
3.09831e-08
2.91157e-08
3.02786e-08
2.88772e-08
2.94944e-08
2.53579e-08
2.57679e-08
2.65151e-08
3.12018e-08
2.6154e-08
2.66166e-08
2.81768e-08
2.82828e-08
2.88643e-08
2.88267e-08
2.92132e-08
3.00336e-08
2.95431e-08
3.00019e-08
2.87144e-08
3.0096e-08
2.92322e-08
2.93846e-08
2.98574e-08
2.99435e-08
2.96259e-08
3.02487e-08
2.94751e-08
2.99408e-08
2.84823e-08
2.96501e-08
2.86885e-08
2.86123e-08
2.82607e-08
3.01481e-08
2.96056e-08
3.05719e-08
2.88844e-08
3.02378e-08
2.77651e-08
2.9384e-08
2.53734e-08
2.43099e-08
3.15828e-08
2.54631e-08
2.96307e-08
2.97624e-08
2.71961e-08
2.86909e-08
2.82127e-08
2.79788e-08
2.82895e-08
2.86729e-08
2.86323e-08
2.8412e-08
2.87699e-08
2.87538e-08
2.96644e-08
2.87984e-08
3.08446e-08
2.97081e-08
3.12212e-08
2.99729e-08
3.00483e-08
2.94616e-08
2.99611e-08
2.91271e-08
2.89708e-08
2.92279e-08
2.97454e-08
2.7817e-08
2.91039e-08
2.93802e-08
3.09183e-08
2.89165e-08
2.99113e-08
2.84179e-08
2.96309e-08
2.57247e-08
2.62461e-08
2.70216e-08
3.11675e-08
2.68594e-08
2.58651e-08
2.78865e-08
2.76556e-08
2.82911e-08
2.86044e-08
2.88261e-08
2.93572e-08
2.86893e-08
2.98158e-08
2.92789e-08
3.00176e-08
2.83624e-08
3.01368e-08
2.97061e-08
2.9179e-08
2.98466e-08
2.98724e-08
2.94892e-08
3.0179e-08
2.92047e-08
3.00516e-08
2.85473e-08
2.91774e-08
2.8761e-08
2.88655e-08
2.94822e-08
2.96636e-08
2.9268e-08
3.03845e-08
2.89389e-08
3.00277e-08
2.78472e-08
2.89797e-08
2.53175e-08
2.48181e-08
3.17038e-08
2.68953e-08
2.96358e-08
2.94895e-08
2.75879e-08
2.88865e-08
2.87533e-08
2.84678e-08
2.96728e-08
2.7504e-08
2.88411e-08
2.81052e-08
2.90204e-08
2.85952e-08
2.86342e-08
2.89377e-08
2.97019e-08
2.89192e-08
3.10738e-08
2.96881e-08
3.10248e-08
2.97941e-08
3.0005e-08
2.94477e-08
2.9817e-08
2.92059e-08
2.89923e-08
2.93206e-08
2.97131e-08
2.80458e-08
2.92361e-08
2.93934e-08
3.02837e-08
2.85543e-08
2.99183e-08
2.82837e-08
2.92313e-08
2.53867e-08
2.6646e-08
2.82076e-08
3.12947e-08
2.72579e-08
2.61841e-08
2.82325e-08
2.81353e-08
2.84367e-08
2.83824e-08
2.92758e-08
2.88846e-08
2.88193e-08
2.94261e-08
2.89169e-08
2.94876e-08
2.86299e-08
3.01977e-08
2.85586e-08
2.99924e-08
2.9659e-08
2.92401e-08
3.00786e-08
2.98483e-08
2.94836e-08
3.02482e-08
2.924e-08
2.98496e-08
2.89835e-08
2.88412e-08
2.89316e-08
2.89351e-08
2.92636e-08
2.958e-08
2.93232e-08
3.03796e-08
2.85553e-08
2.96979e-08
2.79759e-08
2.97604e-08
2.5248e-08
2.50512e-08
3.15264e-08
2.79317e-08
3.0083e-08
2.99729e-08
2.83681e-08
3.00915e-08
2.94796e-08
2.85169e-08
3.07155e-08
2.82013e-08
2.99296e-08
2.78257e-08
2.9176e-08
2.78884e-08
2.88504e-08
2.81393e-08
2.87584e-08
2.92512e-08
2.96538e-08
2.92974e-08
3.10683e-08
2.94776e-08
3.11297e-08
2.99235e-08
2.98691e-08
2.96157e-08
2.93845e-08
2.90073e-08
2.90963e-08
2.8983e-08
2.97319e-08
2.81793e-08
2.93342e-08
2.93985e-08
3.02317e-08
2.85499e-08
2.93101e-08
2.80257e-08
2.96139e-08
2.57112e-08
2.65112e-08
2.87087e-08
3.11817e-08
2.75993e-08
2.66611e-08
2.86578e-08
2.89868e-08
2.85025e-08
2.85994e-08
2.9326e-08
2.91206e-08
2.93386e-08
2.9168e-08
2.89935e-08
2.90045e-08
2.8888e-08
2.93937e-08
2.85117e-08
3.02207e-08
2.8407e-08
2.95521e-08
2.95871e-08
2.97455e-08
2.99697e-08
2.98837e-08
2.94747e-08
3.01544e-08
2.93606e-08
2.96781e-08
2.8647e-08
2.90736e-08
2.89617e-08
2.91096e-08
2.94065e-08
2.91567e-08
2.92709e-08
3.02421e-08
2.84697e-08
2.91567e-08
2.79296e-08
2.97212e-08
2.55919e-08
2.52493e-08
3.13643e-08
2.89415e-08
3.04031e-08
3.05616e-08
2.93174e-08
3.08609e-08
2.95195e-08
2.85391e-08
3.00014e-08
2.7988e-08
3.08074e-08
2.82008e-08
3.00688e-08
2.76634e-08
3.02912e-08
2.76957e-08
2.87175e-08
2.90678e-08
2.85664e-08
2.92567e-08
3.00969e-08
2.92087e-08
3.06183e-08
2.95943e-08
3.08931e-08
3.03485e-08
2.97955e-08
2.96373e-08
2.97392e-08
2.8916e-08
2.90938e-08
2.92602e-08
2.95757e-08
2.82222e-08
2.92582e-08
2.88538e-08
3.01201e-08
2.84569e-08
2.94244e-08
2.78996e-08
2.96103e-08
2.57697e-08
2.66636e-08
2.88978e-08
3.08632e-08
2.84954e-08
2.74501e-08
2.90155e-08
2.93939e-08
2.80098e-08
2.87532e-08
2.82542e-08
2.87439e-08
2.9155e-08
2.9164e-08
2.92574e-08
2.88279e-08
2.88523e-08
2.8902e-08
2.88036e-08
2.90805e-08
2.84736e-08
2.96299e-08
2.87667e-08
2.98683e-08
2.92938e-08
3.02111e-08
2.94144e-08
3.01867e-08
2.94997e-08
3.01264e-08
2.9061e-08
2.92259e-08
2.88853e-08
2.91805e-08
2.91971e-08
2.92682e-08
2.92123e-08
2.88811e-08
2.90952e-08
3.00788e-08
2.84935e-08
2.92328e-08
2.80044e-08
2.95444e-08
2.58165e-08
2.5372e-08
3.08314e-08
2.89183e-08
3.04533e-08
3.04998e-08
2.97136e-08
3.10965e-08
2.89675e-08
2.88369e-08
2.98977e-08
2.81958e-08
3.07082e-08
2.8386e-08
3.08294e-08
2.80431e-08
3.02063e-08
2.78758e-08
2.94232e-08
2.80125e-08
2.90958e-08
2.8843e-08
2.86145e-08
2.89163e-08
2.98969e-08
2.927e-08
3.04881e-08
3.00078e-08
3.05222e-08
3.01917e-08
2.95824e-08
2.98486e-08
2.93446e-08
2.90759e-08
2.92849e-08
2.92353e-08
2.94017e-08
2.83246e-08
2.93088e-08
2.8717e-08
3.00382e-08
2.85987e-08
2.94333e-08
2.78915e-08
2.93512e-08
2.58402e-08
2.65061e-08
2.82421e-08
3.01114e-08
2.96236e-08
2.79745e-08
2.90541e-08
2.95602e-08
2.77251e-08
2.92767e-08
2.70135e-08
2.85847e-08
2.82874e-08
2.94634e-08
2.88401e-08
2.92182e-08
2.94173e-08
2.88119e-08
2.85474e-08
2.93108e-08
2.92654e-08
2.87604e-08
2.88687e-08
2.97576e-08
2.89768e-08
3.01183e-08
2.93961e-08
3.00388e-08
2.98617e-08
2.99885e-08
2.99954e-08
3.03258e-08
2.91613e-08
2.96071e-08
2.90272e-08
2.92779e-08
2.93001e-08
2.92154e-08
2.9058e-08
2.90291e-08
2.89362e-08
2.98181e-08
2.87551e-08
2.91087e-08
2.83391e-08
2.90938e-08
2.56041e-08
2.52713e-08
3.09175e-08
2.85175e-08
3.04982e-08
2.99097e-08
2.95142e-08
3.07952e-08
2.87091e-08
2.90336e-08
3.06743e-08
2.82171e-08
2.94496e-08
2.79133e-08
3.08231e-08
2.82416e-08
3.10815e-08
2.78977e-08
2.99877e-08
2.79366e-08
2.93226e-08
2.79818e-08
2.87646e-08
2.86843e-08
2.85136e-08
2.90401e-08
2.99086e-08
2.93343e-08
3.01803e-08
2.99595e-08
3.08558e-08
2.96774e-08
3.00205e-08
2.95464e-08
2.94924e-08
2.91049e-08
2.96241e-08
2.9285e-08
2.95821e-08
2.82729e-08
2.93669e-08
2.85516e-08
2.99371e-08
2.88921e-08
2.89554e-08
2.82217e-08
2.9209e-08
2.53302e-08
2.6618e-08
2.80344e-08
2.9909e-08
2.94746e-08
2.71715e-08
2.86617e-08
2.91488e-08
2.73833e-08
2.8828e-08
2.68979e-08
2.87102e-08
2.73217e-08
2.89009e-08
2.85213e-08
2.9253e-08
2.93108e-08
2.91697e-08
2.95311e-08
2.88696e-08
2.88361e-08
2.93085e-08
2.85901e-08
2.91626e-08
2.86968e-08
2.94124e-08
2.86971e-08
3.01735e-08
2.94966e-08
2.95381e-08
2.95783e-08
3.00578e-08
2.92305e-08
3.03439e-08
2.94585e-08
2.96368e-08
2.92022e-08
2.92558e-08
2.90588e-08
2.91644e-08
2.90747e-08
2.89323e-08
2.90647e-08
2.9749e-08
2.87203e-08
2.89577e-08
2.8382e-08
2.95731e-08
2.50608e-08
2.55845e-08
3.01806e-08
2.84415e-08
2.96338e-08
2.94435e-08
2.93407e-08
3.02079e-08
2.84525e-08
2.8933e-08
2.85323e-08
2.84439e-08
2.91081e-08
2.81862e-08
2.95021e-08
2.80834e-08
3.12049e-08
2.84889e-08
3.08197e-08
2.8004e-08
3.00033e-08
2.80655e-08
2.90353e-08
2.81911e-08
2.863e-08
2.89389e-08
2.86715e-08
2.88e-08
2.96658e-08
2.92118e-08
3.06681e-08
3.00046e-08
3.08055e-08
3.03612e-08
2.99223e-08
2.92665e-08
2.9477e-08
2.88625e-08
2.93881e-08
2.92167e-08
2.95265e-08
2.83183e-08
2.92081e-08
2.8746e-08
2.97912e-08
2.87466e-08
2.88579e-08
2.82881e-08
2.98942e-08
2.51059e-08
2.68677e-08
2.75705e-08
2.93109e-08
2.9229e-08
2.70038e-08
2.85656e-08
2.84858e-08
2.72766e-08
2.85477e-08
2.67031e-08
2.90849e-08
2.72143e-08
2.89828e-08
2.7298e-08
2.88496e-08
2.87121e-08
2.8956e-08
2.95995e-08
2.89618e-08
2.95415e-08
2.8882e-08
2.89223e-08
2.95541e-08
2.85596e-08
2.92689e-08
2.90285e-08
2.91863e-08
2.85956e-08
3.00155e-08
2.95461e-08
2.97485e-08
2.9446e-08
3.00536e-08
2.89634e-08
3.03329e-08
2.95266e-08
2.96226e-08
2.90864e-08
2.94927e-08
2.91376e-08
2.93209e-08
2.87643e-08
2.90037e-08
2.9026e-08
2.96754e-08
2.86796e-08
2.88687e-08
2.78442e-08
2.96377e-08
2.55095e-08
2.57094e-08
3.0582e-08
2.73327e-08
2.91333e-08
2.8775e-08
2.89925e-08
2.97168e-08
2.81753e-08
2.89319e-08
2.8547e-08
2.85179e-08
2.86927e-08
2.81464e-08
2.92553e-08
2.80515e-08
3.02565e-08
2.86848e-08
3.09796e-08
2.81032e-08
3.09724e-08
2.79074e-08
3.00625e-08
2.81054e-08
2.91079e-08
2.86974e-08
2.84572e-08
2.83581e-08
2.93489e-08
2.90264e-08
2.95163e-08
2.90726e-08
3.05785e-08
3.01643e-08
3.04639e-08
2.99259e-08
3.0052e-08
2.91018e-08
2.95687e-08
2.88283e-08
2.94209e-08
2.95193e-08
2.92514e-08
2.81362e-08
2.92089e-08
2.88348e-08
2.96901e-08
2.8877e-08
2.91631e-08
2.82601e-08
2.97588e-08
2.54649e-08
2.70507e-08
2.73634e-08
3.09779e-08
2.893e-08
2.65299e-08
2.829e-08
2.83282e-08
2.71052e-08
2.8366e-08
2.69779e-08
2.86984e-08
2.72006e-08
2.90421e-08
2.71247e-08
2.90263e-08
2.75638e-08
2.86027e-08
2.86456e-08
2.9276e-08
2.91997e-08
2.8984e-08
2.9485e-08
2.85852e-08
2.89701e-08
2.93305e-08
2.87206e-08
2.92942e-08
2.88322e-08
2.91211e-08
2.85744e-08
3.00482e-08
2.9416e-08
2.98775e-08
2.93684e-08
2.99691e-08
2.92682e-08
3.04011e-08
2.96339e-08
2.96517e-08
2.9025e-08
2.9183e-08
2.9179e-08
2.99886e-08
2.87942e-08
2.89112e-08
2.91559e-08
2.94527e-08
2.86397e-08
2.90975e-08
2.78629e-08
2.95007e-08
2.54483e-08
2.59301e-08
3.06359e-08
2.73842e-08
2.8036e-08
2.82074e-08
2.85261e-08
2.976e-08
2.81728e-08
2.9144e-08
2.89206e-08
2.84385e-08
2.88787e-08
2.80167e-08
2.8588e-08
2.80937e-08
2.87702e-08
2.81433e-08
3.06045e-08
2.84321e-08
3.1009e-08
2.85027e-08
3.12125e-08
2.82124e-08
3.02699e-08
2.81413e-08
2.92121e-08
2.88535e-08
2.87574e-08
2.85477e-08
2.94503e-08
2.89885e-08
2.96863e-08
2.9224e-08
3.04235e-08
2.97976e-08
3.06604e-08
2.93517e-08
2.98037e-08
2.91227e-08
2.93544e-08
2.84921e-08
2.91709e-08
2.919e-08
2.95084e-08
2.81548e-08
2.94161e-08
2.86927e-08
2.97405e-08
2.87851e-08
2.90542e-08
2.81893e-08
2.89952e-08
2.52005e-08
2.74226e-08
2.69663e-08
3.20012e-08
2.8012e-08
2.64327e-08
2.80223e-08
2.8247e-08
2.72437e-08
2.86104e-08
2.76073e-08
2.8416e-08
2.80681e-08
2.84425e-08
2.71258e-08
2.85241e-08
2.72343e-08
2.90239e-08
2.77787e-08
2.93201e-08
2.87407e-08
2.91203e-08
2.96293e-08
2.92726e-08
2.99387e-08
2.86833e-08
2.90338e-08
2.92775e-08
2.86278e-08
2.92146e-08
2.87651e-08
2.93172e-08
2.86172e-08
2.99355e-08
2.95333e-08
2.97944e-08
2.95574e-08
2.99569e-08
2.93915e-08
3.0582e-08
2.96496e-08
2.97765e-08
2.88408e-08
2.93734e-08
2.93469e-08
2.93599e-08
2.89761e-08
2.92073e-08
2.94036e-08
2.93433e-08
2.85928e-08
2.89401e-08
2.83665e-08
2.92304e-08
2.53077e-08
2.61718e-08
3.15917e-08
2.81056e-08
2.86486e-08
2.7812e-08
2.81589e-08
2.97662e-08
2.85292e-08
2.9667e-08
2.93947e-08
2.84272e-08
2.89439e-08
2.76317e-08
2.93916e-08
2.82014e-08
2.8736e-08
2.80255e-08
2.89713e-08
2.82196e-08
3.05182e-08
2.86028e-08
3.14585e-08
2.8401e-08
3.08941e-08
2.79479e-08
3.00707e-08
2.81324e-08
2.89525e-08
2.87774e-08
2.89543e-08
2.85323e-08
2.92958e-08
2.92045e-08
2.98341e-08
2.93457e-08
3.04827e-08
2.9859e-08
3.06294e-08
2.93452e-08
2.97742e-08
2.90098e-08
2.9394e-08
2.84655e-08
2.92764e-08
2.95215e-08
2.9339e-08
2.8111e-08
2.91294e-08
2.89965e-08
2.95684e-08
2.88853e-08
2.91334e-08
2.7751e-08
2.92392e-08
2.54796e-08
2.81197e-08
2.71477e-08
3.17325e-08
2.74164e-08
2.60439e-08
2.76621e-08
2.84614e-08
2.7687e-08
2.92078e-08
2.79471e-08
2.88012e-08
2.86294e-08
2.76949e-08
2.7696e-08
2.7969e-08
2.71999e-08
2.86508e-08
2.74605e-08
2.86033e-08
2.77081e-08
2.87661e-08
2.92888e-08
2.94588e-08
2.92027e-08
2.92209e-08
3.02103e-08
2.86788e-08
2.90854e-08
2.94359e-08
2.85976e-08
2.90493e-08
2.8912e-08
2.96111e-08
2.88484e-08
3.02424e-08
2.92115e-08
2.99235e-08
2.9331e-08
2.98234e-08
2.96716e-08
3.02747e-08
2.9573e-08
2.95563e-08
2.87418e-08
2.93987e-08
2.95741e-08
2.95783e-08
2.91469e-08
2.93566e-08
2.93355e-08
2.9252e-08
2.86473e-08
2.94954e-08
2.77308e-08
2.92114e-08
2.49491e-08
2.69497e-08
3.18254e-08
2.80104e-08
2.73632e-08
2.74442e-08
2.77681e-08
2.96502e-08
2.89436e-08
2.99304e-08
2.9382e-08
2.88775e-08
2.9269e-08
2.85011e-08
2.93351e-08
2.74614e-08
2.91057e-08
2.76603e-08
2.93427e-08
2.81325e-08
2.95546e-08
2.80788e-08
3.11902e-08
2.84448e-08
3.07591e-08
2.88341e-08
3.08548e-08
2.78898e-08
3.00926e-08
2.81126e-08
2.91826e-08
2.86296e-08
2.89066e-08
2.85511e-08
2.90758e-08
2.93545e-08
2.97347e-08
2.92385e-08
3.05637e-08
2.98807e-08
3.05661e-08
2.91824e-08
2.99995e-08
2.90934e-08
2.92947e-08
2.87769e-08
2.94159e-08
2.92434e-08
2.88847e-08
2.79618e-08
2.92699e-08
2.88842e-08
2.93825e-08
2.83594e-08
2.94798e-08
2.79288e-08
2.9188e-08
2.48493e-08
2.83905e-08
2.79795e-08
3.26279e-08
2.71494e-08
2.65452e-08
2.76119e-08
2.86969e-08
2.82589e-08
2.96304e-08
2.82192e-08
2.93224e-08
2.80599e-08
2.9123e-08
2.77836e-08
2.8155e-08
2.80915e-08
2.85649e-08
2.72688e-08
2.75522e-08
2.73289e-08
2.87884e-08
2.7714e-08
2.92279e-08
2.94501e-08
2.94163e-08
2.96373e-08
2.90958e-08
3.00789e-08
2.87272e-08
2.86901e-08
2.91408e-08
2.86099e-08
2.93087e-08
2.89862e-08
2.9426e-08
2.88808e-08
2.97138e-08
2.95634e-08
3.0168e-08
2.95422e-08
3.00304e-08
3.00813e-08
3.02625e-08
2.96436e-08
2.96022e-08
2.88052e-08
2.93048e-08
2.97291e-08
2.97946e-08
2.88111e-08
2.91839e-08
2.90853e-08
2.95971e-08
2.84961e-08
2.933e-08
2.76702e-08
2.94443e-08
2.47872e-08
2.75014e-08
3.12928e-08
2.92509e-08
2.77807e-08
2.77296e-08
2.7625e-08
2.97398e-08
2.93002e-08
3.01982e-08
2.9406e-08
2.90405e-08
2.95528e-08
2.87066e-08
2.89707e-08
2.83608e-08
2.89532e-08
2.7241e-08
2.89557e-08
2.79085e-08
2.93007e-08
2.80061e-08
2.90425e-08
2.81187e-08
2.9935e-08
2.87083e-08
3.07329e-08
2.84219e-08
3.05097e-08
2.7939e-08
3.00682e-08
2.83124e-08
2.88992e-08
2.86305e-08
2.90988e-08
2.8858e-08
2.90127e-08
2.91146e-08
2.99379e-08
2.90374e-08
3.04063e-08
2.96547e-08
3.06772e-08
2.91899e-08
2.99821e-08
2.90713e-08
2.93943e-08
2.89096e-08
2.94806e-08
2.94372e-08
2.88579e-08
2.7949e-08
2.95149e-08
2.8825e-08
2.95938e-08
2.83932e-08
2.9289e-08
2.7818e-08
2.90509e-08
2.47581e-08
2.90654e-08
2.79365e-08
3.16287e-08
2.81015e-08
2.66337e-08
2.76008e-08
2.87078e-08
2.86595e-08
2.95388e-08
2.82284e-08
2.92616e-08
2.82876e-08
2.96402e-08
2.80485e-08
2.99351e-08
2.78379e-08
2.82245e-08
2.80783e-08
2.87851e-08
2.74205e-08
2.7965e-08
2.73551e-08
2.85233e-08
2.80252e-08
2.90494e-08
2.92825e-08
3.01474e-08
2.98291e-08
2.95309e-08
2.97549e-08
2.84255e-08
2.8648e-08
2.91376e-08
2.87406e-08
2.88818e-08
2.89964e-08
2.96209e-08
2.88132e-08
2.99472e-08
2.9248e-08
3.00916e-08
2.97149e-08
2.99138e-08
2.97436e-08
3.01602e-08
2.97231e-08
2.95574e-08
2.89345e-08
2.94122e-08
2.96751e-08
2.98329e-08
2.87079e-08
2.90579e-08
2.88394e-08
2.95842e-08
2.84562e-08
2.90446e-08
2.78665e-08
2.93946e-08
2.43069e-08
2.77499e-08
3.16768e-08
2.94724e-08
2.70661e-08
2.76215e-08
2.76045e-08
2.93513e-08
2.95479e-08
2.99231e-08
2.94995e-08
2.91403e-08
2.94466e-08
2.89011e-08
2.93609e-08
2.83536e-08
2.88262e-08
2.85254e-08
2.88309e-08
2.74826e-08
2.84845e-08
2.77167e-08
2.92007e-08
2.8383e-08
2.94013e-08
2.82239e-08
3.03356e-08
2.86754e-08
3.0415e-08
2.8854e-08
3.10623e-08
2.85235e-08
3.0162e-08
2.8305e-08
2.9219e-08
2.86396e-08
2.89362e-08
2.88913e-08
2.92202e-08
2.93846e-08
2.98103e-08
2.94396e-08
3.07699e-08
2.95553e-08
3.04067e-08
2.92976e-08
2.97702e-08
2.90909e-08
2.94612e-08
2.88253e-08
2.94216e-08
2.92703e-08
2.87831e-08
2.81401e-08
2.91412e-08
2.86562e-08
2.97897e-08
2.84678e-08
2.88196e-08
2.76241e-08
2.90224e-08
2.44509e-08
2.87091e-08
2.81761e-08
3.19349e-08
2.8196e-08
2.74466e-08
2.78376e-08
2.86383e-08
2.92916e-08
2.93265e-08
2.86169e-08
2.91273e-08
2.81538e-08
2.93537e-08
2.78634e-08
2.95288e-08
2.81603e-08
2.95105e-08
2.78858e-08
2.85768e-08
2.80896e-08
2.80847e-08
2.74932e-08
2.80603e-08
2.76721e-08
2.86167e-08
2.79858e-08
2.86636e-08
2.93874e-08
3.03662e-08
2.94482e-08
2.87828e-08
2.92232e-08
2.94007e-08
2.87012e-08
2.91161e-08
2.87156e-08
2.93529e-08
2.90214e-08
2.96318e-08
2.9002e-08
3.04201e-08
2.89553e-08
2.99707e-08
2.99357e-08
2.99682e-08
2.90469e-08
3.02672e-08
2.98506e-08
2.96003e-08
2.89596e-08
2.95926e-08
2.97424e-08
2.99338e-08
2.88567e-08
2.91647e-08
2.85743e-08
2.9153e-08
2.86533e-08
2.88748e-08
2.7918e-08
2.93959e-08
2.45853e-08
2.70882e-08
3.16724e-08
3.06671e-08
2.76415e-08
2.79818e-08
2.75428e-08
2.92249e-08
2.97412e-08
2.93059e-08
2.97513e-08
2.89909e-08
2.9556e-08
2.86755e-08
2.94895e-08
2.82229e-08
2.93289e-08
2.83116e-08
2.91726e-08
2.81736e-08
2.84556e-08
2.81884e-08
2.89849e-08
2.69925e-08
2.94351e-08
2.77019e-08
2.94395e-08
2.81557e-08
3.07646e-08
2.8332e-08
3.04205e-08
2.90261e-08
3.09526e-08
2.8434e-08
2.94931e-08
2.80521e-08
2.87243e-08
2.84576e-08
2.87689e-08
2.87638e-08
2.92261e-08
2.919e-08
2.97206e-08
2.93786e-08
3.08343e-08
2.93506e-08
3.0304e-08
2.97813e-08
2.9942e-08
2.92766e-08
2.94252e-08
2.90179e-08
2.9534e-08
2.93058e-08
2.87105e-08
2.84993e-08
2.90224e-08
2.84749e-08
2.9356e-08
2.84261e-08
2.89471e-08
2.80257e-08
2.85787e-08
2.4513e-08
2.8638e-08
2.82707e-08
3.17995e-08
2.79459e-08
2.7556e-08
2.79536e-08
2.87652e-08
2.96094e-08
2.90119e-08
2.93769e-08
2.87137e-08
2.83499e-08
2.92821e-08
2.79837e-08
3.02089e-08
2.81049e-08
2.96364e-08
2.83306e-08
2.93466e-08
2.76668e-08
2.86463e-08
2.76655e-08
2.83907e-08
2.79455e-08
2.81924e-08
2.7914e-08
2.84251e-08
2.83412e-08
2.84675e-08
2.97794e-08
3.00825e-08
2.90321e-08
2.88941e-08
2.90786e-08
2.94795e-08
2.89355e-08
2.95703e-08
2.90764e-08
2.93545e-08
2.89422e-08
2.96798e-08
2.92481e-08
3.03563e-08
2.91418e-08
2.9826e-08
3.01177e-08
3.00517e-08
2.91405e-08
3.044e-08
2.96999e-08
2.96485e-08
2.91405e-08
2.96665e-08
2.97381e-08
2.98025e-08
2.86962e-08
2.9146e-08
2.86216e-08
2.93828e-08
2.85873e-08
2.89302e-08
2.78924e-08
2.92111e-08
2.41856e-08
2.7139e-08
3.14903e-08
3.10001e-08
2.82611e-08
2.83149e-08
2.74966e-08
2.87602e-08
2.964e-08
2.8527e-08
3.03751e-08
2.84117e-08
3.01328e-08
2.78886e-08
2.95539e-08
2.82482e-08
2.94234e-08
2.85931e-08
2.91468e-08
2.82465e-08
2.95206e-08
2.86407e-08
2.85328e-08
2.77735e-08
2.80806e-08
2.75878e-08
2.89656e-08
2.77926e-08
2.94647e-08
2.80018e-08
3.08132e-08
2.87251e-08
3.05253e-08
2.92992e-08
3.0498e-08
2.89864e-08
2.93216e-08
2.83771e-08
2.91652e-08
2.85713e-08
2.91646e-08
2.86964e-08
2.9328e-08
2.9118e-08
2.99155e-08
2.95041e-08
3.11462e-08
2.93436e-08
3.04811e-08
2.94634e-08
3.00176e-08
2.90259e-08
2.9623e-08
2.91221e-08
2.97266e-08
2.93983e-08
2.89448e-08
2.83121e-08
2.91662e-08
2.82418e-08
2.93573e-08
2.86359e-08
2.88833e-08
2.78952e-08
2.89208e-08
2.44739e-08
2.84291e-08
2.81857e-08
3.17769e-08
2.82449e-08
2.76392e-08
2.77443e-08
2.85457e-08
2.96741e-08
2.86554e-08
3.01761e-08
2.848e-08
2.89415e-08
2.88091e-08
2.84921e-08
2.96415e-08
2.81249e-08
2.93456e-08
2.82583e-08
3.02379e-08
2.78729e-08
2.91877e-08
2.83224e-08
2.8568e-08
2.77894e-08
2.80876e-08
2.80897e-08
2.79778e-08
2.78818e-08
2.84032e-08
2.83407e-08
2.88022e-08
2.85827e-08
3.01079e-08
2.89309e-08
2.98781e-08
2.92682e-08
2.93318e-08
2.85508e-08
2.94045e-08
2.88481e-08
2.85717e-08
2.90271e-08
2.94382e-08
2.90881e-08
3.0304e-08
2.9215e-08
2.95973e-08
3.00145e-08
3.01814e-08
2.91396e-08
3.03468e-08
2.97473e-08
2.96736e-08
2.93162e-08
2.95012e-08
2.97991e-08
2.96932e-08
2.85315e-08
2.91013e-08
2.85154e-08
2.91461e-08
2.86213e-08
2.89825e-08
2.79673e-08
2.95844e-08
2.45189e-08
2.71918e-08
3.17794e-08
3.12795e-08
2.83056e-08
2.80814e-08
2.75667e-08
2.84805e-08
2.9487e-08
2.80083e-08
3.097e-08
2.78842e-08
3.06201e-08
2.72429e-08
2.99209e-08
2.75617e-08
2.96441e-08
2.81512e-08
2.91379e-08
2.81926e-08
2.88424e-08
2.85952e-08
2.85526e-08
2.82335e-08
2.83762e-08
2.79125e-08
2.86321e-08
2.72566e-08
2.92791e-08
2.74668e-08
2.92356e-08
2.81873e-08
3.02252e-08
2.96362e-08
3.01095e-08
2.91374e-08
2.99547e-08
2.86698e-08
2.95557e-08
2.82364e-08
2.88888e-08
2.87134e-08
2.89395e-08
2.89708e-08
2.94958e-08
2.90821e-08
2.98529e-08
2.95029e-08
3.09901e-08
2.91338e-08
3.04912e-08
2.98148e-08
2.97978e-08
2.90939e-08
2.96464e-08
2.89072e-08
2.97811e-08
2.9414e-08
2.93056e-08
2.84319e-08
2.877e-08
2.81686e-08
2.93544e-08
2.84752e-08
2.87072e-08
2.81792e-08
2.86973e-08
2.45588e-08
2.87261e-08
2.80703e-08
3.15058e-08
2.87337e-08
2.82573e-08
2.79844e-08
2.84006e-08
2.96496e-08
2.8374e-08
3.07125e-08
2.84813e-08
2.89148e-08
2.90767e-08
2.85718e-08
2.91802e-08
2.83866e-08
2.96975e-08
2.82741e-08
2.95711e-08
2.8188e-08
2.97015e-08
2.79892e-08
2.91305e-08
2.87957e-08
2.89103e-08
2.75041e-08
2.80795e-08
2.82749e-08
2.78776e-08
2.82703e-08
2.84675e-08
2.84266e-08
2.93228e-08
2.91831e-08
3.01323e-08
2.90605e-08
2.96802e-08
2.90627e-08
2.95638e-08
2.87889e-08
2.90022e-08
2.85801e-08
2.89469e-08
2.89462e-08
2.93749e-08
2.91378e-08
3.01076e-08
2.93415e-08
2.96859e-08
3.01871e-08
2.99711e-08
2.87898e-08
3.02711e-08
2.9837e-08
2.98017e-08
2.92844e-08
2.95342e-08
2.97792e-08
2.93782e-08
2.85298e-08
2.91876e-08
2.84826e-08
2.92589e-08
2.85586e-08
2.89165e-08
2.77374e-08
2.91904e-08
2.44248e-08
2.75267e-08
3.20811e-08
3.13484e-08
2.79115e-08
2.83158e-08
2.73275e-08
2.80864e-08
2.93306e-08
2.74705e-08
3.08851e-08
2.79262e-08
3.06719e-08
2.72373e-08
2.97653e-08
2.72745e-08
3.00788e-08
2.77836e-08
2.96727e-08
2.82642e-08
2.92266e-08
2.83558e-08
2.90183e-08
2.8703e-08
2.9135e-08
2.78087e-08
2.82988e-08
2.779e-08
2.81371e-08
2.793e-08
2.94339e-08
2.76429e-08
2.92445e-08
2.86434e-08
3.00264e-08
2.85997e-08
3.02413e-08
2.94273e-08
3.00139e-08
2.89001e-08
2.92492e-08
2.8329e-08
2.92035e-08
2.88326e-08
2.8985e-08
2.90413e-08
2.93797e-08
2.90205e-08
2.98528e-08
2.94628e-08
3.08589e-08
2.92578e-08
3.0499e-08
2.97356e-08
3.00319e-08
2.89495e-08
2.97573e-08
2.87649e-08
2.98219e-08
2.92527e-08
2.94702e-08
2.85265e-08
2.86805e-08
2.82012e-08
2.91484e-08
2.85235e-08
2.92015e-08
2.79541e-08
2.90469e-08
2.43208e-08
2.91979e-08
2.83643e-08
3.15902e-08
2.92766e-08
2.83392e-08
2.82124e-08
2.82586e-08
2.96313e-08
2.81606e-08
3.07946e-08
2.87278e-08
2.91502e-08
2.88945e-08
2.89812e-08
2.93002e-08
2.89181e-08
2.91606e-08
2.82324e-08
2.9314e-08
2.83257e-08
2.95548e-08
2.82586e-08
2.95425e-08
2.79017e-08
2.87903e-08
2.85527e-08
2.86869e-08
2.77319e-08
2.84977e-08
2.78391e-08
2.78678e-08
2.81679e-08
2.8618e-08