/*--------------------------------*- C++ -*----------------------------------*\
| =========                 |                                                 |
| \\      /  F ield         | OpenFOAM: The Open Source CFD Toolbox           |
|  \\    /   O peration     | Version:  2206                                  |
|   \\  /    A nd           | Website:  www.openfoam.com                      |
|    \\/     M anipulation  |                                                 |
\*---------------------------------------------------------------------------*/
FoamFile
{
    version     2.0;
    format      ascii;
    arch        "LSB;label=32;scalar=64";
    class       volScalarField;
    location    "160";
    object      nuTildaMean;
}
// * * * * * * * * * * * * * * * * * * * * * * * * * * * * * * * * * * * * * //

dimensions      [0 2 -1 0 0 0 0];

internalField   nonuniform List<scalar> 
93840
(
4.2184e-07
3.47861e-07
4.25371e-07
4.03024e-07
3.42308e-07
4.18088e-07
3.85525e-07
4.11561e-07
3.61642e-07
4.1227e-07
4.05858e-07
3.86477e-07
4.08016e-07
3.64709e-07
4.18576e-07
3.91828e-07
4.0349e-07
3.9063e-07
4.10447e-07
3.5224e-07
4.02394e-07
4.00402e-07
3.96073e-07
4.03197e-07
3.93089e-07
4.15344e-07
3.77863e-07
4.27552e-07
3.96666e-07
3.99564e-07
3.94989e-07
3.98912e-07
3.94183e-07
4.1163e-07
3.61592e-07
4.04751e-07
3.99695e-07
3.92986e-07
3.99513e-07
3.9888e-07
3.99315e-07
3.95863e-07
4.06027e-07
3.67285e-07
4.27545e-07
3.96977e-07
4.04215e-07
3.97215e-07
3.98864e-07
3.9781e-07
3.98708e-07
3.91884e-07
4.05652e-07
3.59262e-07
4.12279e-07
3.9947e-07
3.94758e-07
4.00029e-07
3.96209e-07
4.00109e-07
3.98587e-07
3.99158e-07
3.96544e-07
4.05221e-07
3.71777e-07
4.30302e-07
3.96117e-07
4.00533e-07
3.96375e-07
4.01322e-07
3.98444e-07
3.98824e-07
3.97683e-07
4.00298e-07
3.92547e-07
4.00282e-07
3.6837e-07
4.15355e-07
3.99437e-07
3.94997e-07
3.99603e-07
3.97479e-07
3.98832e-07
3.98745e-07
4.00269e-07
3.95287e-07
4.01328e-07
3.95809e-07
3.98678e-07
3.69954e-07
4.22587e-07
3.97932e-07
3.9968e-07
3.96661e-07
3.98196e-07
3.97765e-07
3.98552e-07
3.98155e-07
4.02281e-07
3.983e-07
4.01754e-07
3.97295e-07
4.02908e-07
3.66515e-07
4.17807e-07
3.98134e-07
3.97421e-07
3.99543e-07
3.98376e-07
3.98353e-07
3.98313e-07
3.98612e-07
3.97107e-07
3.98396e-07
3.96766e-07
3.99106e-07
3.95175e-07
4.05901e-07
3.70146e-07
4.23822e-07
3.98165e-07
3.98848e-07
3.97505e-07
3.98303e-07
3.98248e-07
3.98464e-07
3.98534e-07
3.99214e-07
3.97716e-07
4.00317e-07
3.98108e-07
4.01482e-07
3.93113e-07
4.0271e-07
3.67684e-07
4.19463e-07
3.98244e-07
3.97285e-07
3.99616e-07
3.98373e-07
3.98617e-07
3.9834e-07
3.98421e-07
3.98321e-07
3.99865e-07
3.97518e-07
3.99412e-07
3.97354e-07
3.99926e-07
3.94928e-07
4.0227e-07
3.68249e-07
4.22362e-07
3.98076e-07
3.98907e-07
3.96438e-07
3.98443e-07
3.97478e-07
3.98383e-07
3.98376e-07
3.9854e-07
3.97319e-07
3.99665e-07
3.97574e-07
3.99647e-07
3.97466e-07
4.01956e-07
3.95722e-07
4.03839e-07
3.6743e-07
4.19073e-07
3.98146e-07
3.97957e-07
3.99284e-07
3.97412e-07
3.99183e-07
3.98288e-07
3.98708e-07
3.9768e-07
3.99554e-07
3.98106e-07
3.99365e-07
3.97819e-07
3.99465e-07
3.96759e-07
3.99126e-07
3.94164e-07
4.0563e-07
3.69447e-07
4.21878e-07
3.9824e-07
3.98381e-07
3.97657e-07
3.9957e-07
3.98018e-07
3.98278e-07
3.98351e-07
3.99545e-07
3.978e-07
3.98921e-07
3.97801e-07
3.99113e-07
3.9745e-07
4.00012e-07
3.97995e-07
4.0188e-07
3.93868e-07
4.03508e-07
3.69408e-07
4.18499e-07
3.98302e-07
3.98034e-07
3.98676e-07
3.97857e-07
3.98744e-07
3.9835e-07
3.98521e-07
3.97726e-07
3.99493e-07
3.98452e-07
3.99289e-07
3.9733e-07
3.99906e-07
3.98996e-07
3.9972e-07
3.97261e-07
3.99801e-07
3.9636e-07
4.02991e-07
3.70826e-07
4.20875e-07
3.98096e-07
3.984e-07
3.97836e-07
3.98403e-07
3.97645e-07
3.98261e-07
3.98437e-07
3.98803e-07
3.97733e-07
3.98504e-07
3.98074e-07
4.00132e-07
3.97403e-07
3.99159e-07
3.96218e-07
3.99367e-07
3.97805e-07
4.01425e-07
3.93869e-07
4.03283e-07
3.68383e-07
4.18544e-07
3.98405e-07
3.97998e-07
3.98327e-07
3.98121e-07
3.9853e-07
3.98327e-07
3.98521e-07
3.97749e-07
3.99476e-07
3.9755e-07
3.99258e-07
3.97327e-07
4.00289e-07
3.98613e-07
3.99745e-07
3.98219e-07
3.99395e-07
3.96336e-07
3.99467e-07
3.96362e-07
4.04067e-07
3.70137e-07
4.21704e-07
3.97972e-07
3.98459e-07
3.98227e-07
3.98865e-07
3.98052e-07
3.98237e-07
3.98375e-07
3.99696e-07
3.95739e-07
3.99213e-07
3.97927e-07
3.99443e-07
3.96874e-07
3.98529e-07
3.97256e-07
4.00244e-07
3.96851e-07
4.00592e-07
3.98298e-07
4.01973e-07
3.93477e-07
4.04412e-07
3.68257e-07
4.18413e-07
3.98231e-07
3.98002e-07
3.98357e-07
3.97405e-07
3.98461e-07
3.98334e-07
3.98384e-07
3.9797e-07
4.01755e-07
3.98221e-07
3.99478e-07
3.97737e-07
3.99953e-07
3.97908e-07
4.00074e-07
3.97789e-07
3.99967e-07
3.97418e-07
3.99714e-07
3.96127e-07
3.9987e-07
3.95662e-07
4.03841e-07
3.71728e-07
4.27297e-07
3.98002e-07
3.98465e-07
3.98238e-07
3.98581e-07
3.9795e-07
3.98413e-07
3.98272e-07
3.98475e-07
3.96501e-07
3.98923e-07
3.97169e-07
3.98851e-07
3.97289e-07
4.0024e-07
3.96714e-07
3.99342e-07
3.97034e-07
4.00057e-07
3.97332e-07
4.00255e-07
3.97598e-07
4.01142e-07
3.93556e-07
4.02122e-07
3.69489e-07
4.18343e-07
3.98394e-07
3.98236e-07
3.98416e-07
3.97742e-07
3.98443e-07
3.98243e-07
3.98291e-07
3.98375e-07
3.98685e-07
3.98262e-07
3.99263e-07
3.98214e-07
3.99933e-07
3.9681e-07
3.99862e-07
3.98498e-07
3.99218e-07
3.97056e-07
3.9999e-07
3.97859e-07
3.99796e-07
3.96382e-07
4.01485e-07
3.96031e-07
4.00597e-07
3.68292e-07
4.20785e-07
3.9802e-07
3.98327e-07
3.98274e-07
3.98884e-07
3.98319e-07
3.98652e-07
3.98295e-07
3.98805e-07
3.98e-07
3.99336e-07
3.97477e-07
3.99132e-07
3.97228e-07
3.99478e-07
3.97085e-07
3.98442e-07
3.97679e-07
3.99357e-07
3.98055e-07
3.99138e-07
3.97213e-07
3.99564e-07
3.9767e-07
4.01984e-07
3.9467e-07
4.01763e-07
3.70524e-07
4.1856e-07
3.98231e-07
3.98192e-07
3.98283e-07
3.98026e-07
3.98334e-07
3.97924e-07
3.98444e-07
3.97796e-07
3.99386e-07
3.97337e-07
3.99382e-07
3.97652e-07
3.9977e-07
3.97742e-07
4.00349e-07
3.97791e-07
3.99634e-07
3.98486e-07
3.99719e-07
3.98576e-07
3.99802e-07
3.97993e-07
3.99425e-07
3.96253e-07
4.01088e-07
3.96753e-07
4.01805e-07
3.70949e-07
4.21246e-07
3.98223e-07
3.98232e-07
3.98159e-07
3.9833e-07
3.98301e-07
3.98767e-07
3.98472e-07
3.99662e-07
3.95493e-07
3.99829e-07
3.97116e-07
3.99384e-07
3.97239e-07
3.99063e-07
3.97484e-07
3.99501e-07
3.96975e-07
3.98922e-07
3.97429e-07
3.99213e-07
3.96663e-07
3.99905e-07
3.9758e-07
4.00195e-07
3.98069e-07
4.00947e-07
3.95625e-07
4.03268e-07
3.69186e-07
4.19895e-07
3.98597e-07
3.98134e-07
3.98386e-07
3.98377e-07
3.98424e-07
3.97842e-07
3.98318e-07
3.98066e-07
4.02371e-07
3.97625e-07
3.99767e-07
3.97369e-07
3.99796e-07
3.97905e-07
3.99521e-07
3.9773e-07
4.00399e-07
3.98928e-07
3.99587e-07
3.97934e-07
3.99322e-07
3.98401e-07
3.99385e-07
3.9741e-07
3.99434e-07
3.97026e-07
3.99835e-07
3.95568e-07
4.03661e-07
3.70567e-07
4.21176e-07
3.97733e-07
3.9828e-07
3.97857e-07
3.98358e-07
3.98222e-07
3.99336e-07
3.98379e-07
3.98568e-07
3.96269e-07
3.98882e-07
3.97476e-07
4.00342e-07
3.97116e-07
3.99293e-07
3.97156e-07
3.99971e-07
3.97359e-07
3.98751e-07
3.96732e-07
3.99638e-07
3.98077e-07
3.99761e-07
3.97138e-07
4.00146e-07
3.97983e-07
3.99823e-07
3.98299e-07
4.00685e-07
3.94716e-07
4.02811e-07
3.71321e-07
4.20292e-07
3.9843e-07
3.98098e-07
3.98453e-07
3.98311e-07
3.98281e-07
3.96441e-07
3.98259e-07
3.98369e-07
3.98764e-07
3.9793e-07
3.99226e-07
3.97116e-07
3.99966e-07
3.97594e-07
3.9938e-07
3.98233e-07
3.98942e-07
3.97742e-07
3.99927e-07
3.98682e-07
3.99092e-07
3.98269e-07
3.98769e-07
3.98401e-07
3.99033e-07
3.97852e-07
3.99519e-07
3.97228e-07
4.00389e-07
3.97368e-07
4.01079e-07
3.71237e-07
4.2057e-07
3.9802e-07
3.9839e-07
3.98294e-07
3.98337e-07
3.98248e-07
3.99176e-07
3.98527e-07
3.98627e-07
3.97996e-07
3.99351e-07
3.98001e-07
4.00019e-07
3.97129e-07
3.99308e-07
3.97617e-07
3.9906e-07
3.98025e-07
3.99737e-07
3.97588e-07
3.99293e-07
3.97126e-07
3.99109e-07
3.97504e-07
3.98859e-07
3.97448e-07
3.99313e-07
3.97754e-07
3.98989e-07
3.97394e-07
4.00523e-07
3.94968e-07
4.01181e-07
3.71469e-07
4.19668e-07
3.98275e-07
3.98062e-07
3.98247e-07
3.98254e-07
3.98231e-07
3.98318e-07
3.9824e-07
3.98327e-07
3.99031e-07
3.97606e-07
3.9891e-07
3.97252e-07
4.00151e-07
3.97763e-07
3.99322e-07
3.97741e-07
3.98915e-07
3.98013e-07
3.98869e-07
3.98516e-07
3.99836e-07
3.98668e-07
3.99126e-07
3.98671e-07
3.99632e-07
3.98539e-07
3.99207e-07
3.97942e-07
4.00162e-07
3.97678e-07
4.00458e-07
3.97738e-07
4.01621e-07
3.70998e-07
4.21443e-07
3.97917e-07
3.98468e-07
3.98317e-07
3.98219e-07
3.98292e-07
3.98213e-07
3.9846e-07
3.98616e-07
3.98109e-07
3.99348e-07
3.97987e-07
3.99418e-07
3.97057e-07
3.99415e-07
3.98162e-07
3.99249e-07
3.98148e-07
3.98766e-07
3.97771e-07
3.99124e-07
3.97382e-07
3.98797e-07
3.96636e-07
3.99348e-07
3.976e-07
3.98602e-07
3.97511e-07
3.99267e-07
3.9705e-07
3.99241e-07
3.97082e-07
4.01226e-07
3.95552e-07
4.01817e-07
3.69987e-07
4.19286e-07
3.98335e-07
3.98153e-07
3.98397e-07
3.98255e-07
3.98279e-07
3.98226e-07
3.98322e-07
3.98225e-07
3.98774e-07
3.98034e-07
3.991e-07
3.97262e-07
3.99895e-07
3.97537e-07
3.99673e-07
3.97343e-07
3.98984e-07
3.98335e-07
3.99333e-07
3.98301e-07
3.99158e-07
3.99027e-07
3.99758e-07
3.98197e-07
3.99336e-07
3.98338e-07
3.99299e-07
3.98381e-07
3.99689e-07
3.98596e-07
4.00096e-07
3.96988e-07
4.00718e-07
3.96481e-07
4.02804e-07
3.71162e-07
4.20971e-07
3.98154e-07
3.98326e-07
3.98311e-07
3.9843e-07
3.98277e-07
3.98374e-07
3.98403e-07
3.9861e-07
3.97965e-07
3.98902e-07
3.97874e-07
3.99453e-07
3.97392e-07
3.9929e-07
3.97551e-07
3.99833e-07
3.97962e-07
3.98882e-07
3.97705e-07
3.99114e-07
3.9793e-07
3.989e-07
3.96954e-07
3.99654e-07
3.96986e-07
3.9895e-07
3.98065e-07
3.98848e-07
3.97763e-07
3.98991e-07
3.9681e-07
3.99889e-07
3.97611e-07
4.00863e-07
3.95323e-07
4.02546e-07
3.70791e-07
4.1974e-07
3.9833e-07
3.9812e-07
3.98514e-07
3.97807e-07
3.98363e-07
3.98392e-07
3.98478e-07
3.98472e-07
3.99501e-07
3.97724e-07
3.9918e-07
3.97991e-07
3.99715e-07
3.97784e-07
3.9907e-07
3.97162e-07
3.9956e-07
3.98275e-07
3.99064e-07
3.98502e-07
3.99177e-07
3.98114e-07
3.99056e-07
3.98397e-07
4.00061e-07
3.98146e-07
3.99204e-07
3.98176e-07
3.98962e-07
3.98556e-07
3.99021e-07
3.98119e-07
3.99168e-07
3.98145e-07
4.00943e-07
3.96241e-07
4.00784e-07
3.71173e-07
4.21708e-07
3.98153e-07
3.98736e-07
3.98276e-07
3.99214e-07
3.98472e-07
3.98493e-07
3.98527e-07
3.9856e-07
3.98266e-07
3.99467e-07
3.97676e-07
3.98885e-07
3.9765e-07
3.99876e-07
3.975e-07
3.99707e-07
3.97696e-07
3.9913e-07
3.98095e-07
3.98526e-07
3.97998e-07
3.98893e-07
3.98054e-07
3.99028e-07
3.9737e-07
3.99676e-07
3.9802e-07
3.98472e-07
3.98366e-07
3.98773e-07
3.97808e-07
3.99603e-07
3.97257e-07
3.99464e-07
3.97012e-07
4.01165e-07
3.96452e-07
4.02616e-07
3.70036e-07
4.20504e-07
3.98268e-07
3.98117e-07
3.98817e-07
3.97917e-07
3.98477e-07
3.98509e-07
3.98469e-07
3.98435e-07
3.98629e-07
3.97884e-07
3.99256e-07
3.98194e-07
3.99581e-07
3.97533e-07
3.99961e-07
3.97834e-07
3.99712e-07
3.97964e-07
3.99645e-07
3.98345e-07
3.99158e-07
3.98251e-07
3.99357e-07
3.97984e-07
3.99283e-07
3.97709e-07
3.98976e-07
3.9878e-07
3.98788e-07
3.98242e-07
3.98598e-07
3.98567e-07
3.99202e-07
3.98402e-07
3.99326e-07
3.97632e-07
4.00645e-07
3.96352e-07
4.02319e-07
3.70695e-07
4.20475e-07
3.98186e-07
3.98355e-07
3.97891e-07
3.98762e-07
3.9855e-07
3.98529e-07
3.9836e-07
3.98379e-07
3.98465e-07
3.98998e-07
3.97717e-07
3.99086e-07
3.97288e-07
3.99073e-07
3.9777e-07
3.99207e-07
3.96976e-07
3.99605e-07
3.97609e-07
3.9846e-07
3.98007e-07
3.98908e-07
3.98034e-07
3.98665e-07
3.98073e-07
3.98984e-07
3.97925e-07
3.98544e-07
3.9804e-07
3.98999e-07
3.98217e-07
3.9929e-07
3.97749e-07
3.99233e-07
3.97968e-07
3.99667e-07
3.97133e-07
4.001e-07
3.96029e-07
4.03291e-07
3.71107e-07
4.19778e-07
3.98408e-07
3.98221e-07
3.9844e-07
3.97927e-07
3.98353e-07
3.98345e-07
3.98332e-07
3.98468e-07
3.98634e-07
3.98094e-07
3.99625e-07
3.97847e-07
4.0036e-07
3.97799e-07
4.0022e-07
3.97668e-07
4.00199e-07
3.9865e-07
3.99587e-07
3.97959e-07
3.99373e-07
3.98098e-07
3.99114e-07
3.97896e-07
3.99201e-07
3.9821e-07
3.99359e-07
3.98596e-07
3.99199e-07
3.98104e-07
3.98665e-07
3.98173e-07
3.98479e-07
3.9854e-07
3.98811e-07
3.98333e-07
3.99757e-07
3.97551e-07
4.00343e-07
3.96141e-07
4.02647e-07
3.71523e-07
4.1996e-07
3.98085e-07
3.98366e-07
3.98272e-07
3.98785e-07
3.98264e-07
3.98305e-07
3.98337e-07
3.98563e-07
3.98389e-07
3.989e-07
3.97692e-07
3.99097e-07
3.97354e-07
3.99492e-07
3.98149e-07
3.99058e-07
3.97725e-07
3.98412e-07
3.97807e-07
3.98604e-07
3.98818e-07
3.99046e-07
3.97911e-07
3.99149e-07
3.98113e-07
3.98813e-07
3.9814e-07
3.9897e-07
3.97736e-07
3.99531e-07
3.98419e-07
3.98897e-07
3.98464e-07
3.99092e-07
3.98092e-07
3.98869e-07
3.97721e-07
3.99747e-07
3.97275e-07
4.00443e-07
3.95793e-07
4.03026e-07
3.71981e-07
4.1961e-07
3.98282e-07
3.97946e-07
3.98427e-07
3.97471e-07
3.98226e-07
3.98283e-07
3.98522e-07
3.97946e-07
3.99063e-07
3.98076e-07
3.99249e-07
3.97422e-07
3.99687e-07
3.97849e-07
3.99297e-07
3.9808e-07
3.99706e-07
3.9776e-07
4.00438e-07
3.98057e-07
3.99131e-07
3.97604e-07
3.99567e-07
3.97661e-07
3.99526e-07
3.97967e-07
3.9922e-07
3.98124e-07
3.99088e-07
3.98469e-07
3.98716e-07
3.98144e-07
3.98846e-07
3.98282e-07
3.98765e-07
3.9838e-07
3.98657e-07
3.98091e-07
4.0004e-07
3.97216e-07
4.00948e-07
3.96021e-07
4.02451e-07
3.72286e-07
4.19781e-07
3.9739e-07
3.98593e-07
3.98257e-07
3.9968e-07
3.98391e-07
3.98425e-07
3.98365e-07
3.99459e-07
3.94696e-07
3.99423e-07
3.98076e-07
3.99753e-07
3.97436e-07
3.9896e-07
3.97986e-07
3.99132e-07
3.98211e-07
3.98446e-07
3.98612e-07
3.98196e-07
3.98177e-07
3.98576e-07
3.98416e-07
3.99219e-07
3.981e-07
3.98605e-07
3.9798e-07
3.98827e-07
3.98089e-07
3.98579e-07
3.98092e-07
3.99208e-07
3.98489e-07
3.98829e-07
3.98446e-07
3.98821e-07
3.98289e-07
3.99047e-07
3.97504e-07
3.99773e-07
3.96811e-07
4.01147e-07
3.96394e-07
4.02175e-07
3.72546e-07
4.19714e-07
3.99449e-07
3.97595e-07
3.9819e-07
3.97645e-07
3.98436e-07
3.98387e-07
3.98351e-07
3.98445e-07
4.03783e-07
3.9858e-07
3.99081e-07
3.9723e-07
4.00174e-07
3.97701e-07
3.99268e-07
3.98054e-07
3.99459e-07
3.98035e-07
3.99724e-07
3.98004e-07
3.99568e-07
3.98552e-07
3.99031e-07
3.98352e-07
3.99656e-07
3.97913e-07
3.99447e-07
3.98587e-07
3.98926e-07
3.98805e-07
3.9901e-07
3.98245e-07
3.98674e-07
3.9785e-07
3.98874e-07
3.98119e-07
3.98745e-07
3.983e-07
3.99187e-07
3.97786e-07
3.9968e-07
3.97333e-07
3.99943e-07
3.96381e-07
4.01201e-07
3.72075e-07
4.19729e-07
3.97729e-07
3.99148e-07
3.98205e-07
3.98269e-07
3.98333e-07
3.9839e-07
3.98375e-07
3.98391e-07
3.95769e-07
3.97947e-07
3.97095e-07
3.997e-07
3.97953e-07
3.99471e-07
3.97415e-07
3.99348e-07
3.9813e-07
3.99086e-07
3.98608e-07
3.98633e-07
3.98445e-07
3.98408e-07
3.98937e-07
3.98468e-07
3.97894e-07
3.98949e-07
3.9822e-07
3.98656e-07
3.98115e-07
3.98954e-07
3.97592e-07
3.99038e-07
3.98164e-07
3.99247e-07
3.98423e-07
3.98832e-07
3.9842e-07
3.98913e-07
3.98125e-07
3.99144e-07
3.97605e-07
3.99729e-07
3.97568e-07
4.00227e-07
3.96443e-07
4.01712e-07
3.71905e-07
4.19925e-07
3.9828e-07
3.97933e-07
3.98935e-07
3.98281e-07
3.98408e-07
3.98368e-07
3.9839e-07
3.98471e-07
3.98414e-07
3.98538e-07
3.99886e-07
3.98221e-07
3.98968e-07
3.98182e-07
4.00144e-07
3.98176e-07
3.99238e-07
3.9826e-07
3.99355e-07
3.98347e-07
3.99538e-07
3.9834e-07
3.98788e-07
3.97659e-07
3.99023e-07
3.98543e-07
3.99325e-07
3.98126e-07
3.99005e-07
3.98837e-07
3.98648e-07
3.98593e-07
3.99075e-07
3.9824e-07
3.98626e-07
3.9793e-07
3.98827e-07
3.98252e-07
3.98855e-07
3.98157e-07
3.99118e-07
3.97728e-07
3.99557e-07
3.97167e-07
4.00439e-07
3.96997e-07
4.02662e-07
3.70411e-07
4.20408e-07
3.97567e-07
3.98544e-07
3.97549e-07
3.98363e-07
3.9834e-07
3.98358e-07
3.98425e-07
3.98442e-07
3.9825e-07
3.99062e-07
3.97633e-07
3.99093e-07
3.97575e-07
3.99004e-07
3.97214e-07
3.98528e-07
3.98243e-07
3.98542e-07
3.98709e-07
3.98893e-07
3.98514e-07
3.98148e-07
3.98513e-07
3.98782e-07
3.99078e-07
3.98538e-07
3.97794e-07
3.98899e-07
3.98075e-07
3.98715e-07
3.97688e-07
3.99047e-07
3.97771e-07
3.98933e-07
3.98316e-07
3.9895e-07
3.98497e-07
3.98933e-07
3.98351e-07
3.98937e-07
3.98361e-07
3.99222e-07
3.97782e-07
3.99632e-07
3.97038e-07
4.00029e-07
3.95814e-07
4.03583e-07
3.71176e-07
4.19587e-07
3.99433e-07
3.98066e-07
3.98581e-07
3.98379e-07
3.98405e-07
3.98453e-07
3.9835e-07
3.98391e-07
3.98825e-07
3.98096e-07
3.99069e-07
3.98131e-07
3.99875e-07
3.97862e-07
3.99676e-07
3.98686e-07
3.99523e-07
3.98207e-07
3.9926e-07
3.98491e-07
3.9972e-07
3.98548e-07
3.99314e-07
3.98587e-07
3.99093e-07
3.98127e-07
3.99319e-07
3.98266e-07
3.99171e-07
3.98635e-07
3.98959e-07
3.98598e-07
3.99043e-07
3.98273e-07
3.98619e-07
3.98404e-07
3.98657e-07
3.98009e-07
3.98873e-07
3.98311e-07
3.9873e-07
3.98165e-07
3.99076e-07
3.97891e-07
4.00008e-07
3.9769e-07
3.99973e-07
3.96042e-07
4.02818e-07
3.71177e-07
4.19885e-07
3.97359e-07
3.98677e-07
3.98413e-07
3.98375e-07
3.98367e-07
3.98418e-07
3.98441e-07
3.98375e-07
3.98334e-07
3.99329e-07
3.97877e-07
3.99274e-07
3.9756e-07
4.0015e-07
3.97252e-07
3.98814e-07
3.98183e-07
3.9912e-07
3.98208e-07
3.98641e-07
3.98873e-07
3.98526e-07
3.98605e-07
3.98545e-07
3.98138e-07
3.98387e-07
3.98396e-07
3.9866e-07
3.98038e-07
3.99108e-07
3.98109e-07
3.98715e-07
3.98091e-07
3.99052e-07
3.98044e-07
3.99205e-07
3.98534e-07
3.99137e-07
3.98397e-07
3.98925e-07
3.98312e-07
3.99032e-07
3.98024e-07
3.99018e-07
3.97769e-07
3.99591e-07
3.97272e-07
4.00165e-07
3.96263e-07
4.03625e-07
3.72055e-07
4.19168e-07
3.98883e-07
3.9763e-07
3.98194e-07
3.98123e-07
3.98392e-07
3.98334e-07
3.98361e-07
3.98332e-07
3.98458e-07
3.98026e-07
3.9883e-07
3.98251e-07
3.99562e-07
3.97923e-07
3.99489e-07
3.9821e-07
3.99367e-07
3.97892e-07
3.99886e-07
3.97621e-07
3.99047e-07
3.97697e-07
3.99571e-07
3.98126e-07
3.99152e-07
3.99043e-07
3.99327e-07
3.98317e-07
3.99243e-07
3.98356e-07
3.98704e-07
3.98334e-07
3.98903e-07
3.98353e-07
3.99066e-07
3.98399e-07
3.98317e-07
3.98212e-07
3.98784e-07
3.98053e-07
3.98667e-07
3.98291e-07
3.98843e-07
3.98135e-07
3.9875e-07
3.97547e-07
3.99988e-07
3.96999e-07
3.99846e-07
3.96095e-07
4.02236e-07
3.72062e-07
4.20184e-07
3.9744e-07
3.99162e-07
3.97384e-07
3.98401e-07
3.98322e-07
3.9834e-07
3.98339e-07
3.98445e-07
3.98278e-07
3.98611e-07
3.98181e-07
3.98759e-07
3.97508e-07
3.99135e-07
3.9776e-07
3.99716e-07
3.97915e-07
3.99347e-07
3.97797e-07
3.99155e-07
3.98529e-07
3.98843e-07
3.99105e-07
3.99169e-07
3.98552e-07
3.98538e-07
3.97844e-07
3.98525e-07
3.98214e-07
3.98908e-07
3.97944e-07
3.99213e-07
3.98418e-07
3.98974e-07
3.9766e-07
3.99243e-07
3.98183e-07
3.98899e-07
3.98296e-07
3.99007e-07
3.98239e-07
3.9885e-07
3.98175e-07
3.99027e-07
3.98229e-07
3.99274e-07
3.97569e-07
4.00166e-07
3.96954e-07
4.0017e-07
3.96547e-07
4.02233e-07
3.71573e-07
4.19473e-07
3.99302e-07
3.98075e-07
3.99911e-07
3.98305e-07
3.9828e-07
3.98343e-07
3.98359e-07
3.98312e-07
3.98569e-07
3.98433e-07
3.98848e-07
3.98024e-07
4.00138e-07
3.98185e-07
3.99049e-07
3.97959e-07
3.99727e-07
3.98331e-07
4.0029e-07
3.98313e-07
3.99026e-07
3.98381e-07
3.98976e-07
3.97754e-07
3.99032e-07
3.98433e-07
3.98971e-07
3.98848e-07
3.99193e-07
3.98133e-07
3.9889e-07
3.98361e-07
3.98567e-07
3.9813e-07
3.98691e-07
3.98964e-07
3.98923e-07
3.98303e-07
3.98844e-07
3.98178e-07
3.9901e-07
3.98138e-07
3.98862e-07
3.98343e-07
3.99035e-07
3.98143e-07
3.98985e-07
3.97418e-07
3.99985e-07
3.97287e-07
4.00182e-07
3.9691e-07
4.01702e-07
3.72518e-07
4.19742e-07
3.97286e-07
3.98594e-07
3.97632e-07
3.98479e-07
3.98282e-07
3.98344e-07
3.98354e-07
3.98607e-07
3.98202e-07
3.98986e-07
3.97963e-07
3.9935e-07
3.98047e-07
3.98542e-07
3.97829e-07
3.99469e-07
3.97618e-07
3.98709e-07
3.98329e-07
3.9777e-07
3.97977e-07
3.99116e-07
3.98432e-07
3.99424e-07
3.98815e-07
3.98862e-07
3.98612e-07
3.98774e-07
3.98148e-07
3.98676e-07
3.98376e-07
3.99011e-07
3.98165e-07
3.98979e-07
3.98756e-07
3.98804e-07
3.97654e-07
3.98744e-07
3.98592e-07
3.98553e-07
3.98114e-07
3.99092e-07
3.97936e-07
3.98734e-07
3.9823e-07
3.99142e-07
3.98146e-07
3.99252e-07
3.97753e-07
3.99929e-07
3.97835e-07
3.99938e-07
3.96328e-07
4.02208e-07
3.72559e-07
4.19898e-07
3.98942e-07
3.96532e-07
3.9848e-07
3.97696e-07
3.983e-07
3.98328e-07
3.98436e-07
3.98381e-07
3.98761e-07
3.98099e-07
3.99424e-07
3.97977e-07
3.98743e-07
3.9817e-07
3.99418e-07
3.97773e-07
4.01362e-07
3.99074e-07
3.99288e-07
3.98587e-07
4.00295e-07
3.98442e-07
3.98861e-07
3.98049e-07
3.99e-07
3.98167e-07
3.99372e-07
3.98365e-07
3.98701e-07
3.98466e-07
3.99263e-07
3.9819e-07
3.99077e-07
3.98168e-07
3.99232e-07
3.97877e-07
3.98729e-07
3.98755e-07
3.98827e-07
3.98234e-07
3.99092e-07
3.98394e-07
3.98962e-07
3.98155e-07
3.98845e-07
3.98241e-07
3.98977e-07
3.98089e-07
3.99108e-07
3.97584e-07
3.99677e-07
3.97306e-07
4.0061e-07
3.96427e-07
4.01431e-07
3.72259e-07
4.20376e-07
3.97663e-07
4.01055e-07
3.96314e-07
3.98662e-07
3.98359e-07
3.98405e-07
3.98376e-07
3.98444e-07
3.98304e-07
3.99314e-07
3.97776e-07
3.99681e-07
3.98107e-07
3.99248e-07
3.98394e-07
3.99764e-07
3.97366e-07
3.97985e-07
3.9789e-07
3.98896e-07
3.98085e-07
3.99448e-07
3.98117e-07
3.98693e-07
3.98544e-07
3.99161e-07
3.98374e-07
3.98888e-07
3.98353e-07
3.98815e-07
3.98528e-07
3.98623e-07
3.98186e-07
3.98906e-07
3.98317e-07
3.98372e-07
3.98721e-07
3.99187e-07
3.98077e-07
3.98712e-07
3.98573e-07
3.98595e-07
3.98074e-07
3.99021e-07
3.98142e-07
3.988e-07
3.97931e-07
3.99143e-07
3.98307e-07
3.99243e-07
3.97863e-07
3.99566e-07
3.97384e-07
4.00981e-07
3.96566e-07
4.02311e-07
3.71579e-07
4.20156e-07
3.98652e-07
3.9716e-07
4.01053e-07
3.98527e-07
3.98423e-07
3.98418e-07
3.98407e-07
3.98334e-07
3.98349e-07
3.98206e-07
3.99431e-07
3.97402e-07
3.99543e-07
3.97351e-07
3.99797e-07
3.97715e-07
3.99556e-07
3.98491e-07
3.99344e-07
3.98948e-07
3.998e-07
3.97711e-07
3.99588e-07
3.98354e-07
3.99106e-07
3.98323e-07
3.98717e-07
3.98337e-07
3.99072e-07
3.98389e-07
3.98734e-07
3.9819e-07
3.99348e-07
3.98189e-07
3.98866e-07
3.97906e-07
3.99068e-07
3.9779e-07
3.98605e-07
3.98551e-07
3.98881e-07
3.98372e-07
3.99006e-07
3.9831e-07
3.98928e-07
3.98303e-07
3.98811e-07
3.98216e-07
3.98678e-07
3.97891e-07
3.9914e-07
3.97707e-07
3.99613e-07
3.96893e-07
4.00712e-07
3.9596e-07
4.01778e-07
3.71685e-07
4.20792e-07
3.97455e-07
3.98563e-07
3.97703e-07
3.98334e-07
3.98358e-07
3.98396e-07
3.98339e-07
3.98357e-07
3.9829e-07
3.98875e-07
3.97644e-07
4.00004e-07
3.97795e-07
4.00666e-07
3.98164e-07
3.98954e-07
3.98246e-07
3.99246e-07
3.97825e-07
3.99249e-07
3.97902e-07
3.98498e-07
3.98414e-07
3.98368e-07
3.98663e-07
3.98874e-07
3.98576e-07
3.98825e-07
3.98423e-07
3.99091e-07
3.98465e-07
3.9899e-07
3.98418e-07
3.98898e-07
3.98274e-07
3.98747e-07
3.98382e-07
3.9874e-07
3.98519e-07
3.98948e-07
3.98096e-07
3.9866e-07
3.98377e-07
3.98778e-07
3.98158e-07
3.98847e-07
3.98346e-07
3.98722e-07
3.98282e-07
3.99261e-07
3.98181e-07
3.99613e-07
3.97827e-07
3.99617e-07
3.97253e-07
4.01128e-07
3.96213e-07
4.02567e-07
3.71293e-07
4.20744e-07
3.9909e-07
3.98116e-07
3.98202e-07
3.98316e-07
3.98355e-07
3.98289e-07
3.98337e-07
3.98346e-07
3.98595e-07
3.98336e-07
3.99682e-07
3.97586e-07
3.99657e-07
3.97091e-07
4.00046e-07
3.97645e-07
3.99046e-07
3.9829e-07
3.9984e-07
3.97817e-07
3.99269e-07
3.98525e-07
3.99457e-07
3.98306e-07
3.99459e-07
3.98244e-07
3.99201e-07
3.98375e-07
3.99375e-07
3.98477e-07
3.98835e-07
3.98069e-07
3.98524e-07
3.98103e-07
3.98858e-07
3.98311e-07
3.99061e-07
3.98088e-07
3.98919e-07
3.98021e-07
3.98743e-07
3.98342e-07
3.98878e-07
3.98416e-07
3.98937e-07
3.98366e-07
3.98841e-07
3.98357e-07
3.98807e-07
3.98057e-07
3.98675e-07
3.97875e-07
3.98956e-07
3.97903e-07
3.99979e-07
3.96776e-07
4.0048e-07
3.9633e-07
4.01698e-07
3.70828e-07
4.20595e-07
3.97703e-07
3.9843e-07
3.98251e-07
3.98703e-07
3.98387e-07
3.98344e-07
3.98359e-07
3.98316e-07
3.9819e-07
3.98855e-07
3.97584e-07
3.99524e-07
3.98131e-07
3.99609e-07
3.9812e-07
3.99827e-07
3.98558e-07
3.98869e-07
3.98329e-07
3.98783e-07
3.98606e-07
3.9916e-07
3.98736e-07
3.98476e-07
3.98772e-07
3.98241e-07
3.98618e-07
3.98596e-07
3.98526e-07
3.98462e-07
3.98495e-07
3.99161e-07
3.98608e-07
3.99676e-07
3.98458e-07
3.98968e-07
3.98341e-07
3.9863e-07
3.98618e-07
3.98913e-07
3.98508e-07
3.99023e-07
3.98067e-07
3.988e-07
3.98185e-07
3.987e-07
3.98118e-07
3.98805e-07
3.98118e-07
3.98746e-07
3.98231e-07
3.99012e-07
3.98181e-07
3.99275e-07
3.97937e-07
3.99705e-07
3.97673e-07
4.00404e-07
3.96147e-07
4.03056e-07
3.71017e-07
4.20267e-07
3.98723e-07
3.98573e-07
3.98968e-07
3.98179e-07
3.98346e-07
3.98282e-07
3.98343e-07
3.98321e-07
3.98441e-07
3.98442e-07
3.99638e-07
3.9739e-07
3.99453e-07
3.96661e-07
3.9921e-07
3.97397e-07
4.00127e-07
3.97965e-07
3.98947e-07
3.98084e-07
3.99251e-07
3.97936e-07
3.9947e-07
3.98517e-07
3.99286e-07
3.98283e-07
3.99372e-07
3.98458e-07
3.99233e-07
3.9859e-07
3.98884e-07
3.98608e-07
3.98784e-07
3.98275e-07
3.9825e-07
3.98023e-07
3.98769e-07
3.98382e-07
3.9918e-07
3.97953e-07
3.98843e-07
3.97808e-07
3.98847e-07
3.98274e-07
3.98793e-07
3.98398e-07
3.99014e-07
3.98389e-07
3.98974e-07
3.98144e-07
3.9907e-07
3.98121e-07
3.98849e-07
3.98118e-07
3.98926e-07
3.97919e-07
3.99333e-07
3.97728e-07
4.00395e-07
3.9579e-07
4.01585e-07
3.71978e-07
4.20643e-07
3.97882e-07
3.98251e-07
3.97451e-07
3.98407e-07
3.98301e-07
3.98431e-07
3.98316e-07
3.98287e-07
3.98362e-07
3.98678e-07
3.97757e-07
4.00033e-07
3.97566e-07
4.00799e-07
3.97983e-07
4.00044e-07
3.98281e-07
3.99597e-07
3.98438e-07
3.99069e-07
3.98706e-07
3.99085e-07
3.98226e-07
3.99185e-07
3.98476e-07
3.98947e-07
3.98219e-07
3.98677e-07
3.98317e-07
3.98663e-07
3.98529e-07
3.98433e-07
3.98426e-07
3.98929e-07
3.9877e-07
3.99106e-07
3.98459e-07
3.98762e-07
3.98394e-07
3.98709e-07
3.98516e-07
3.9896e-07
3.98348e-07
3.98944e-07
3.98243e-07
3.98734e-07
3.98137e-07
3.98808e-07
3.98066e-07
3.98697e-07
3.98091e-07
3.98668e-07
3.98203e-07
3.99019e-07
3.98174e-07
3.98841e-07
3.98321e-07
3.99122e-07
3.97672e-07
4.00452e-07
3.96548e-07
4.01674e-07
3.71383e-07
4.1995e-07
3.98452e-07
3.97964e-07
3.99067e-07
3.98389e-07
3.98457e-07
3.98116e-07
3.98312e-07
3.98352e-07
3.98409e-07
3.98455e-07
3.99336e-07
3.98065e-07
3.99666e-07
3.97204e-07
4.00684e-07
3.9733e-07
3.99198e-07
3.97684e-07
3.99901e-07
3.96807e-07
3.98902e-07
3.97872e-07
3.99158e-07
3.98251e-07
3.98856e-07
3.98247e-07
3.99746e-07
3.98879e-07
3.9919e-07
3.99189e-07
3.99009e-07
3.98478e-07
3.9917e-07
3.98575e-07
3.98663e-07
3.98218e-07
3.98737e-07
3.98203e-07
3.99443e-07
3.98229e-07
3.98983e-07
3.98067e-07
3.98955e-07
3.97952e-07
3.9887e-07
3.98191e-07
3.98896e-07
3.98173e-07
3.99105e-07
3.98273e-07
3.98864e-07
3.97959e-07
3.99088e-07
3.98223e-07
3.9899e-07
3.98133e-07
3.9908e-07
3.98087e-07
3.99328e-07
3.97799e-07
4.0027e-07
3.96458e-07
4.01596e-07
3.71512e-07
4.20225e-07
3.97813e-07
3.98728e-07
3.97785e-07
3.98494e-07
3.97572e-07
3.9837e-07
3.98384e-07
3.98305e-07
3.98354e-07
3.98756e-07
3.98067e-07
3.98901e-07
3.98019e-07
3.99604e-07
3.97869e-07
3.99145e-07
3.98672e-07
3.99924e-07
3.98755e-07
3.99943e-07
3.99506e-07
3.99154e-07
3.98629e-07
3.98776e-07
3.98507e-07
3.99101e-07
3.9852e-07
3.98035e-07
3.98183e-07
3.98648e-07
3.97823e-07
3.98693e-07
3.98364e-07
3.98271e-07
3.98827e-07
3.989e-07
3.98543e-07
3.98725e-07
3.9833e-07
3.98386e-07
3.98111e-07
3.98606e-07
3.983e-07
3.9912e-07
3.98241e-07
3.98821e-07
3.9834e-07
3.98805e-07
3.97993e-07
3.98937e-07
3.98151e-07
3.98772e-07
3.98201e-07
3.9866e-07
3.9815e-07
3.99064e-07
3.97738e-07
3.99033e-07
3.98261e-07
3.98881e-07
3.97912e-07
4.00318e-07
3.96549e-07
4.02171e-07
3.71806e-07
4.19749e-07
3.98574e-07
3.97632e-07
3.98477e-07
3.97433e-07
3.99144e-07
3.98443e-07
3.98309e-07
3.98349e-07
3.98365e-07
3.98283e-07
3.99425e-07
3.97883e-07
3.99454e-07
3.97755e-07
3.99554e-07
3.97926e-07
3.99719e-07
3.97573e-07
3.99519e-07
3.96955e-07
4.00004e-07
3.9721e-07
3.99123e-07
3.98313e-07
3.99144e-07
3.98201e-07
3.99004e-07
3.98148e-07
3.99841e-07
3.98693e-07
3.98966e-07
3.99091e-07
3.98997e-07
3.98419e-07
3.99075e-07
3.98443e-07
3.9852e-07
3.98351e-07
3.98876e-07
3.98414e-07
3.9903e-07
3.98445e-07
3.98951e-07
3.98131e-07
3.99025e-07
3.9799e-07
3.98723e-07
3.98204e-07
3.99013e-07
3.98181e-07
3.9898e-07
3.98188e-07
3.9882e-07
3.98191e-07
3.9883e-07
3.98262e-07
3.99212e-07
3.9793e-07
3.9891e-07
3.98173e-07
3.9915e-07
3.97305e-07
4.00571e-07
3.96661e-07
4.02039e-07
3.72269e-07
4.20541e-07
3.97904e-07
3.98775e-07
3.9832e-07
3.99588e-07
3.98299e-07
3.98258e-07
3.98349e-07
3.98299e-07
3.98364e-07
3.98775e-07
3.97667e-07
3.99676e-07
3.98151e-07
3.99337e-07
3.97896e-07
3.99435e-07
3.98015e-07
3.98964e-07
3.98462e-07
3.99296e-07
3.99032e-07
3.98853e-07
3.99651e-07
3.98606e-07
3.9864e-07
3.98984e-07
3.98413e-07
3.99209e-07
3.98476e-07
3.98083e-07
3.98413e-07
3.98695e-07
3.9826e-07
3.98639e-07
3.98552e-07
3.98387e-07
3.98654e-07
3.98981e-07
3.98442e-07
3.9878e-07
3.98256e-07
3.9863e-07
3.98244e-07
3.98563e-07
3.98132e-07
3.99061e-07
3.98412e-07
3.98825e-07
3.98217e-07
3.9913e-07
3.97939e-07
3.9864e-07
3.98244e-07
3.98712e-07
3.98269e-07
3.98766e-07
3.98197e-07
3.99057e-07
3.98101e-07
3.99002e-07
3.98195e-07
3.99227e-07
3.97693e-07
3.99641e-07
3.96403e-07
4.02565e-07
3.72055e-07
4.19837e-07
3.98589e-07
3.97747e-07
3.9823e-07
3.97886e-07
3.98263e-07
3.98319e-07
3.98298e-07
3.98274e-07
3.98338e-07
3.98399e-07
3.99502e-07
3.97333e-07
3.99148e-07
3.97303e-07
3.99269e-07
3.97822e-07
3.99863e-07
3.98295e-07
3.9933e-07
3.97607e-07
4.00018e-07
3.97401e-07
3.99301e-07
3.97655e-07
3.99162e-07
3.98257e-07
3.98863e-07
3.98424e-07
3.98902e-07
3.98288e-07
3.99486e-07
3.99002e-07
3.98855e-07
3.98799e-07
3.98981e-07
3.9836e-07
3.98869e-07
3.98514e-07
3.98596e-07
3.98391e-07
3.98835e-07
3.98591e-07
3.9881e-07
3.98523e-07
3.98935e-07
3.98191e-07
3.98715e-07
3.98062e-07
3.98818e-07
3.98157e-07
3.99068e-07
3.98112e-07
3.9878e-07
3.98259e-07
3.98745e-07
3.98228e-07
3.98745e-07
3.98255e-07
3.98959e-07
3.98056e-07
3.98661e-07
3.97914e-07
3.9938e-07
3.97623e-07
4.00694e-07
3.96644e-07
4.01255e-07
3.72287e-07
4.20103e-07
3.97883e-07
3.99448e-07
3.98363e-07
3.98363e-07
3.98398e-07
3.98385e-07
3.98361e-07
3.983e-07
3.98367e-07
3.98504e-07
3.98198e-07
3.99856e-07
3.97989e-07
4.0043e-07
3.98369e-07
3.99995e-07
3.97857e-07
3.99336e-07
3.98227e-07
3.99429e-07
3.98426e-07
3.98282e-07
3.98878e-07
3.98808e-07
3.99383e-07
3.98663e-07
3.98908e-07
3.9873e-07
3.98305e-07
3.99151e-07
3.9848e-07