/*--------------------------------*- C++ -*----------------------------------*\
| =========                 |                                                 |
| \\      /  F ield         | OpenFOAM: The Open Source CFD Toolbox           |
|  \\    /   O peration     | Version:  2206                                  |
|   \\  /    A nd           | Website:  www.openfoam.com                      |
|    \\/     M anipulation  |                                                 |
\*---------------------------------------------------------------------------*/
FoamFile
{
    version     2.0;
    format      ascii;
    arch        "LSB;label=32;scalar=64";
    class       volScalarField;
    location    "160";
    object      nuTilda;
}
// * * * * * * * * * * * * * * * * * * * * * * * * * * * * * * * * * * * * * //

dimensions      [0 2 -1 0 0 0 0];

internalField   nonuniform List<scalar> 
93840
(
4.41834e-07
2.98696e-07
4.41408e-07
4.03012e-07
3.043e-07
4.32314e-07
3.72846e-07
4.1556e-07
3.34386e-07
4.23332e-07
4.13095e-07
3.83684e-07
4.10994e-07
3.48538e-07
4.25624e-07
3.88872e-07
4.04831e-07
3.88839e-07
4.10678e-07
3.43847e-07
4.0577e-07
4.00589e-07
3.94503e-07
4.04387e-07
3.93087e-07
4.15349e-07
3.74935e-07
4.27723e-07
3.96725e-07
4.00773e-07
3.92134e-07
3.99672e-07
3.94416e-07
4.11273e-07
3.62009e-07
4.04376e-07
3.99856e-07
3.89646e-07
4.01018e-07
3.98605e-07
3.99368e-07
3.96116e-07
4.05492e-07
3.68812e-07
4.25908e-07
3.97078e-07
4.07494e-07
3.96728e-07
3.98935e-07
3.97768e-07
3.98839e-07
3.92377e-07
4.04775e-07
3.63064e-07
4.10238e-07
3.99533e-07
3.92941e-07
4.01854e-07
3.95704e-07
4.0028e-07
3.98666e-07
3.99322e-07
3.96839e-07
4.03902e-07
3.76485e-07
4.27667e-07
3.96202e-07
4.01025e-07
3.94468e-07
4.02e-07
3.9869e-07
3.98918e-07
3.97624e-07
4.00561e-07
3.92795e-07
3.98538e-07
3.72003e-07
4.10638e-07
3.9947e-07
3.94187e-07
4.00096e-07
3.97161e-07
3.9889e-07
3.98903e-07
4.00512e-07
3.95474e-07
4.01499e-07
3.96745e-07
3.98299e-07
3.73967e-07
4.20503e-07
3.97977e-07
4.0019e-07
3.95242e-07
3.9822e-07
3.97812e-07
3.98716e-07
3.9824e-07
4.02079e-07
3.9832e-07
4.01376e-07
3.97183e-07
4.03269e-07
3.70839e-07
4.14204e-07
3.98159e-07
3.97192e-07
4.00082e-07
3.98557e-07
3.98472e-07
3.98425e-07
3.98695e-07
3.97389e-07
3.98277e-07
3.97488e-07
3.99193e-07
3.94927e-07
4.04699e-07
3.7519e-07
4.21344e-07
3.98215e-07
3.99184e-07
3.97329e-07
3.9831e-07
3.98297e-07
3.98573e-07
3.98586e-07
3.9959e-07
3.97677e-07
4.00677e-07
3.9753e-07
4.01643e-07
3.93572e-07
4.00752e-07
3.71527e-07
4.15059e-07
3.98342e-07
3.96799e-07
3.99758e-07
3.98368e-07
3.98699e-07
3.98391e-07
3.98449e-07
3.98374e-07
3.99992e-07
3.97787e-07
3.9925e-07
3.97702e-07
3.99335e-07
3.9588e-07
4.01717e-07
3.73245e-07
4.19576e-07
3.98094e-07
3.99256e-07
3.96334e-07
3.98407e-07
3.97558e-07
3.98491e-07
3.98392e-07
3.9871e-07
3.97314e-07
3.99837e-07
3.97681e-07
3.99795e-07
3.9715e-07
4.02273e-07
3.95791e-07
4.03772e-07
3.72077e-07
4.15024e-07
3.98166e-07
3.97848e-07
3.99382e-07
3.97458e-07
3.99263e-07
3.98359e-07
3.98887e-07
3.9774e-07
3.99628e-07
3.98349e-07
3.99329e-07
3.98087e-07
3.99235e-07
3.97389e-07
3.98847e-07
3.94042e-07
4.04176e-07
3.75176e-07
4.18931e-07
3.98239e-07
3.98506e-07
3.97605e-07
3.99591e-07
3.98087e-07
3.98275e-07
3.98396e-07
3.99661e-07
3.97983e-07
3.98958e-07
3.97703e-07
3.99538e-07
3.97542e-07
4.00704e-07
3.98065e-07
4.02362e-07
3.95117e-07
4.01357e-07
3.73997e-07
4.14475e-07
3.98318e-07
3.97867e-07
3.98637e-07
3.97919e-07
3.98779e-07
3.98452e-07
3.98703e-07
3.97798e-07
3.99515e-07
3.98563e-07
3.99613e-07
3.97394e-07
4.00062e-07
3.99247e-07
3.99433e-07
3.97314e-07
3.99171e-07
3.96425e-07
4.02069e-07
3.7536e-07
4.18477e-07
3.98113e-07
3.98489e-07
3.97817e-07
3.98445e-07
3.97714e-07
3.98306e-07
3.98528e-07
3.98961e-07
3.97758e-07
3.98607e-07
3.97966e-07
4.00327e-07
3.97758e-07
3.99378e-07
3.9571e-07
3.99376e-07
3.97611e-07
4.01718e-07
3.94186e-07
4.02587e-07
3.72207e-07
4.15521e-07
3.98444e-07
3.97823e-07
3.98315e-07
3.98214e-07
3.98581e-07
3.98404e-07
3.98627e-07
3.97598e-07
3.99724e-07
3.97665e-07
3.99577e-07
3.97221e-07
3.99976e-07
3.98635e-07
4.00178e-07
3.98842e-07
3.99999e-07
3.96627e-07
3.99694e-07
3.96324e-07
4.03356e-07
3.7527e-07
4.19293e-07
3.98028e-07
3.98666e-07
3.98263e-07
3.98907e-07
3.98102e-07
3.98271e-07
3.98437e-07
3.99959e-07
3.95967e-07
3.99296e-07
3.97981e-07
3.99649e-07
3.97143e-07
3.98628e-07
3.97081e-07
4.00384e-07
3.96411e-07
4.0059e-07
3.98236e-07
4.0207e-07
3.93566e-07
4.02888e-07
3.73364e-07
4.17246e-07
3.98264e-07
3.97754e-07
3.98337e-07
3.9753e-07
3.98502e-07
3.98399e-07
3.98505e-07
3.97983e-07
4.01668e-07
3.98423e-07
3.99602e-07
3.97657e-07
4.00264e-07
3.97894e-07
4.00374e-07
3.97818e-07
4.00083e-07
3.98299e-07
3.99676e-07
3.95978e-07
3.99562e-07
3.95896e-07
4.01454e-07
3.77279e-07
4.28518e-07
3.98014e-07
3.98654e-07
3.98251e-07
3.9862e-07
3.9798e-07
3.98469e-07
3.98305e-07
3.98532e-07
3.96752e-07
3.98697e-07
3.97285e-07
3.99071e-07
3.97114e-07
4.00255e-07
3.97096e-07
3.9907e-07
3.96883e-07
4.00201e-07
3.97383e-07
4.00354e-07
3.97874e-07
4.02011e-07
3.94117e-07
3.99648e-07
3.69846e-07
4.12604e-07
3.98484e-07
3.98259e-07
3.98485e-07
3.97793e-07
3.98489e-07
3.98291e-07
3.98361e-07
3.98405e-07
3.98857e-07
3.98438e-07
3.99445e-07
3.98265e-07
4.00242e-07
3.96953e-07
3.99427e-07
3.9891e-07
3.9943e-07
3.97654e-07
3.99762e-07
3.97931e-07
3.99477e-07
3.96453e-07
4.01832e-07
3.96834e-07
4.00616e-07
3.70463e-07
4.17852e-07
3.98043e-07
3.98417e-07
3.98293e-07
3.9895e-07
3.98406e-07
3.98748e-07
3.98322e-07
3.98987e-07
3.9789e-07
3.99506e-07
3.97449e-07
3.99324e-07
3.97152e-07
3.99683e-07
3.97194e-07
3.98545e-07
3.97746e-07
3.99598e-07
3.98476e-07
3.99184e-07
3.97582e-07
3.99498e-07
3.97787e-07
4.01516e-07
3.9542e-07
4.02044e-07
3.76134e-07
4.15668e-07
3.98253e-07
3.98222e-07
3.98383e-07
3.98126e-07
3.98453e-07
3.97997e-07
3.98508e-07
3.97612e-07
3.99571e-07
3.97284e-07
3.99477e-07
3.97688e-07
3.99836e-07
3.97894e-07
4.01006e-07
3.97825e-07
3.9996e-07
3.98427e-07
3.99736e-07
3.98359e-07
4.00387e-07
3.98155e-07
3.99908e-07
3.96632e-07
4.0059e-07
3.97145e-07
4.00845e-07
3.75644e-07
4.19139e-07
3.98246e-07
3.98331e-07
3.98265e-07
3.98475e-07
3.98375e-07
3.98868e-07
3.98533e-07
4.00009e-07
3.956e-07
3.99985e-07
3.97169e-07
3.99554e-07
3.97402e-07
3.99122e-07
3.97582e-07
3.99346e-07
3.97389e-07
3.98992e-07
3.97401e-07
3.99109e-07
3.96756e-07
3.99831e-07
3.97498e-07
4.00104e-07
3.98657e-07
4.00401e-07
3.94965e-07
4.027e-07
3.73811e-07
4.16781e-07
3.98682e-07
3.9816e-07
3.98572e-07
3.98532e-07
3.98545e-07
3.97967e-07
3.98367e-07
3.98099e-07
4.02129e-07
3.97933e-07
3.99912e-07
3.97426e-07
3.99789e-07
3.97979e-07
3.99962e-07
3.97721e-07
4.0022e-07
3.98971e-07
3.9998e-07
3.98403e-07
4.0005e-07
3.98612e-07
3.99757e-07
3.97844e-07
3.99337e-07
3.97208e-07
3.99895e-07
3.9555e-07
4.01563e-07
3.76473e-07
4.18717e-07
3.97809e-07
3.98416e-07
3.97938e-07
3.98487e-07
3.98287e-07
3.99454e-07
3.98446e-07
3.98725e-07
3.96509e-07
3.98639e-07
3.9742e-07
4.00458e-07
3.97258e-07
3.99227e-07
3.97534e-07
3.99761e-07
3.97538e-07
3.9885e-07
3.96628e-07
3.99356e-07
3.98238e-07
3.99296e-07
3.97085e-07
3.99883e-07
3.98603e-07
3.99793e-07
3.98386e-07
4.01069e-07
3.96089e-07
3.99872e-07
3.75731e-07
4.16957e-07
3.98496e-07
3.97972e-07
3.98511e-07
3.98398e-07
3.98313e-07
3.96509e-07
3.98296e-07
3.98455e-07
3.98892e-07
3.98269e-07
3.99561e-07
3.97125e-07
3.99675e-07
3.97829e-07
3.99331e-07
3.98548e-07
3.99026e-07
3.97951e-07
4.00298e-07
3.99033e-07
3.99008e-07
3.9809e-07
3.98781e-07
3.99004e-07
3.9879e-07
3.97667e-07
3.99234e-07
3.96866e-07
4.00305e-07
3.97445e-07
3.9942e-07
3.75518e-07
4.1791e-07
3.98073e-07
3.98389e-07
3.98348e-07
3.98467e-07
3.98298e-07
3.9917e-07
3.9859e-07
3.98764e-07
3.97964e-07
3.99515e-07
3.97891e-07
4.00327e-07
3.9746e-07
3.99229e-07
3.97754e-07
3.98935e-07
3.97932e-07
3.99776e-07
3.98015e-07
3.99283e-07
3.97141e-07
3.99291e-07
3.9795e-07
3.99357e-07
3.97447e-07
3.99736e-07
3.97858e-07
3.99561e-07
3.9777e-07
4.00745e-07
3.95406e-07
4.00718e-07
3.7508e-07
4.17677e-07
3.98289e-07
3.98091e-07
3.98272e-07
3.98301e-07
3.98275e-07
3.98356e-07
3.98271e-07
3.98411e-07
3.99193e-07
3.97753e-07
3.99047e-07
3.97181e-07
3.99954e-07
3.98123e-07
3.99352e-07
3.98043e-07
3.98904e-07
3.98048e-07
3.98665e-07
3.98495e-07
3.99712e-07
3.98457e-07
3.99486e-07
3.98699e-07
3.99495e-07
3.98702e-07
3.99432e-07
3.98002e-07
4.00278e-07
3.97401e-07
4.00992e-07
3.98005e-07
4.01094e-07
3.7426e-07
4.18676e-07
3.97957e-07
3.98472e-07
3.98372e-07
3.98247e-07
3.98349e-07
3.98275e-07
3.98524e-07
3.98802e-07
3.98179e-07
3.99473e-07
3.97926e-07
3.99811e-07
3.97295e-07
3.99434e-07
3.97953e-07
3.99256e-07
3.98419e-07
3.99081e-07
3.98044e-07
3.995e-07
3.97658e-07
3.99049e-07
3.96264e-07
3.99498e-07
3.97647e-07
3.98568e-07
3.97811e-07
3.99552e-07
3.97592e-07
3.99183e-07
3.97037e-07
4.01294e-07
3.94849e-07
4.01493e-07
3.74342e-07
4.16535e-07
3.98358e-07
3.98202e-07
3.98461e-07
3.98338e-07
3.98362e-07
3.9827e-07
3.98371e-07
3.98236e-07
3.9893e-07
3.98102e-07
3.99229e-07
3.97277e-07
3.99838e-07
3.97821e-07
3.99923e-07
3.97445e-07
3.98912e-07
3.98201e-07
3.99646e-07
3.98483e-07
3.99256e-07
3.98776e-07
4.00515e-07
3.98559e-07
3.99089e-07
3.98766e-07
3.99678e-07
3.98436e-07
3.99602e-07
3.98509e-07
4.00562e-07
3.97703e-07
4.00526e-07
3.96761e-07
4.01747e-07
3.75696e-07
4.19477e-07
3.98224e-07
3.98468e-07
3.98491e-07
3.98545e-07
3.98322e-07
3.98503e-07
3.98513e-07
3.98754e-07
3.97965e-07
3.99122e-07
3.97965e-07
3.99754e-07
3.97646e-07
3.99176e-07
3.97473e-07
3.99806e-07
3.98563e-07
3.98999e-07
3.97984e-07
3.98935e-07
3.97937e-07
3.98874e-07
3.96738e-07
3.99833e-07
3.97099e-07
3.98802e-07
3.98039e-07
3.98723e-07
3.98016e-07
3.98725e-07
3.96778e-07
3.99139e-07
3.98322e-07
4.01221e-07
3.95592e-07
4.0008e-07
3.74159e-07
4.17865e-07
3.98411e-07
3.98217e-07
3.98688e-07
3.97916e-07
3.98501e-07
3.98611e-07
3.98635e-07
3.98605e-07
3.99634e-07
3.97734e-07
3.99273e-07
3.97998e-07
3.99902e-07
3.97866e-07
3.99438e-07
3.97465e-07
3.99313e-07
3.98341e-07
3.98918e-07
3.98656e-07
3.99157e-07
3.98263e-07
3.99286e-07
3.98721e-07
4.00068e-07
3.99107e-07
3.99391e-07
3.98538e-07
3.99001e-07
3.9853e-07
3.99703e-07
3.98688e-07
3.99144e-07
3.97535e-07
4.01185e-07
3.97213e-07
4.00423e-07
3.74423e-07
4.19983e-07
3.98253e-07
3.98831e-07
3.98459e-07
3.99295e-07
3.98643e-07
3.98765e-07
3.9872e-07
3.98707e-07
3.98339e-07
3.99512e-07
3.97873e-07
3.99171e-07
3.97627e-07
4.00099e-07
3.97549e-07
4.0012e-07
3.98152e-07
3.99279e-07
3.98161e-07
3.98831e-07
3.97968e-07
3.99126e-07
3.98073e-07
3.99228e-07
3.97055e-07
3.98824e-07
3.98269e-07
3.98208e-07
3.98448e-07
3.98733e-07
3.97881e-07
3.99728e-07
3.97777e-07
3.99741e-07
3.96905e-07
4.00858e-07
3.96462e-07
4.0285e-07
3.73822e-07
4.16925e-07
3.98286e-07
3.98282e-07
3.98923e-07
3.98138e-07
3.98691e-07
3.98741e-07
3.98615e-07
3.98584e-07
3.98841e-07
3.97954e-07
3.99327e-07
3.98057e-07
3.99636e-07
3.97727e-07
3.99727e-07
3.97785e-07
3.99674e-07
3.9792e-07
3.99255e-07
3.9836e-07
3.99423e-07
3.98364e-07
3.99198e-07
3.98165e-07
3.99316e-07
3.98442e-07
3.98559e-07
3.98675e-07
3.99337e-07
3.98199e-07
3.99105e-07
3.98643e-07
3.98964e-07
3.99191e-07
3.99559e-07
3.979e-07
4.00039e-07
3.96202e-07
4.01538e-07
3.75531e-07
4.18098e-07
3.98181e-07
3.98445e-07
3.9801e-07
3.98947e-07
3.98834e-07
3.9876e-07
3.98466e-07
3.98448e-07
3.98528e-07
3.99285e-07
3.97804e-07
3.99558e-07
3.97367e-07
3.98941e-07
3.97661e-07
3.99432e-07
3.97697e-07
3.99507e-07
3.97818e-07
3.98648e-07
3.97912e-07
3.98978e-07
3.97964e-07
3.98669e-07
3.9836e-07
3.99134e-07
3.98479e-07
3.99291e-07
3.97652e-07
3.98884e-07
3.98369e-07
3.99162e-07
3.97896e-07
3.99091e-07
3.97837e-07
3.99965e-07
3.97189e-07
4.00003e-07
3.96194e-07
4.02265e-07
3.75111e-07
4.17388e-07
3.98456e-07
3.98229e-07
3.98618e-07
3.98077e-07
3.98521e-07
3.98471e-07
3.98378e-07
3.98499e-07
3.98759e-07
3.98054e-07
3.99724e-07
3.9785e-07
4.00475e-07
3.98233e-07
4.02489e-07
3.97764e-07
3.99731e-07
3.99077e-07
3.99199e-07
3.98858e-07
3.99856e-07
3.98046e-07
3.99475e-07
3.9812e-07
3.99412e-07
3.98309e-07
3.99395e-07
3.98348e-07
3.99903e-07
3.98597e-07
3.98761e-07
3.98531e-07
3.9869e-07
3.98825e-07
3.98778e-07
3.98454e-07
3.999e-07
3.977e-07
4.01083e-07
3.9614e-07
4.01521e-07
3.75826e-07
4.17904e-07
3.98096e-07
3.98483e-07
3.98422e-07
3.98911e-07
3.98361e-07
3.98324e-07
3.98379e-07
3.98697e-07
3.98456e-07
3.99095e-07
3.97664e-07
3.99292e-07
3.97588e-07
3.99133e-07
3.98251e-07
3.97832e-07
3.9784e-07
3.98653e-07
3.97234e-07
3.98595e-07
3.9836e-07
3.99222e-07
3.97744e-07
3.99227e-07
3.98127e-07
3.98857e-07
3.98181e-07
3.98768e-07
3.97872e-07
3.9892e-07
3.98422e-07
3.99126e-07
3.98631e-07
3.99283e-07
3.98104e-07
3.9887e-07
3.97683e-07
4.00039e-07
3.96933e-07
4.01095e-07
3.95983e-07
4.01812e-07
3.76105e-07
4.17412e-07
3.98341e-07
3.97872e-07
3.98445e-07
3.97512e-07
3.98253e-07
3.98317e-07
3.98633e-07
3.97811e-07
3.99323e-07
3.98112e-07
3.99527e-07
3.9745e-07
3.99681e-07
3.98243e-07
3.99325e-07
3.97834e-07
3.99616e-07
3.97974e-07
4.01037e-07
3.98796e-07
3.99344e-07
3.97742e-07
3.99749e-07
3.98026e-07
3.9957e-07
3.98102e-07
3.99342e-07
3.98422e-07
3.98952e-07
3.98835e-07
3.98755e-07
3.98432e-07
3.9886e-07
3.98303e-07
3.98613e-07
3.98527e-07
3.99038e-07
3.98049e-07
4.00018e-07
3.97055e-07
4.01126e-07
3.969e-07
4.00535e-07
3.76341e-07
4.17848e-07
3.97401e-07
3.98646e-07
3.98574e-07
3.99686e-07
3.98482e-07
3.98575e-07
3.98522e-07
3.99751e-07
3.94881e-07
3.99504e-07
3.97977e-07
4.00078e-07
3.97612e-07
3.98991e-07
3.98127e-07
3.99416e-07
3.98965e-07
3.98698e-07
3.99765e-07
3.97477e-07
3.98703e-07
3.98729e-07
3.99074e-07
3.99617e-07
3.98237e-07
3.98616e-07
3.98544e-07
3.98671e-07
3.98533e-07
3.98823e-07
3.97872e-07
3.99394e-07
3.98157e-07
3.98963e-07
3.98442e-07
3.98982e-07
3.98324e-07
3.99526e-07
3.97668e-07
3.9956e-07
3.97374e-07
3.99949e-07
3.96744e-07
4.00247e-07
3.75667e-07
4.17577e-07
3.9946e-07
3.97534e-07
3.97939e-07
3.97729e-07
3.98539e-07
3.98509e-07
3.98476e-07
3.98476e-07
4.0346e-07
3.98885e-07
3.99265e-07
3.97411e-07
4.00041e-07
3.97758e-07
3.9958e-07
3.98315e-07
3.99594e-07
3.98156e-07
4.00095e-07
3.97701e-07
3.99768e-07
3.98939e-07
3.98962e-07
3.98032e-07
3.99414e-07
3.98042e-07
3.9966e-07
3.98693e-07
3.99144e-07
3.98225e-07
3.99563e-07
3.98417e-07
3.98875e-07
3.97997e-07
3.991e-07
3.98307e-07
3.99053e-07
3.98254e-07
3.99359e-07
3.98055e-07
3.99738e-07
3.97993e-07
3.99746e-07
3.96611e-07
4.00562e-07
3.74772e-07
4.18247e-07
3.97746e-07
3.99313e-07
3.98489e-07
3.98373e-07
3.9851e-07
3.98496e-07
3.98506e-07
3.98481e-07
3.96252e-07
3.979e-07
3.97188e-07
3.99687e-07
3.98421e-07
3.99511e-07
3.97861e-07
3.99295e-07
3.98444e-07
3.99082e-07
3.98836e-07
3.98514e-07
3.98814e-07
3.98167e-07
3.98225e-07
3.98741e-07
3.98222e-07
3.99111e-07
3.98399e-07
3.98557e-07
3.98335e-07
3.98903e-07
3.97773e-07
3.98958e-07
3.98312e-07
3.99175e-07
3.98621e-07
3.98807e-07
3.98636e-07
3.99103e-07
3.98231e-07
3.99082e-07
3.97889e-07
3.99734e-07
3.97167e-07
4.0083e-07
3.96977e-07
4.02554e-07
3.73823e-07
4.18267e-07
3.98333e-07
3.97877e-07
3.98661e-07
3.98333e-07
3.98532e-07
3.98423e-07
3.98479e-07
3.98582e-07
3.98489e-07
3.98765e-07
4.00156e-07
3.98442e-07
3.9889e-07
3.97958e-07
3.99651e-07
3.98711e-07
3.9883e-07
3.98781e-07
3.9946e-07
3.9827e-07
3.99235e-07
3.9842e-07
3.99426e-07
3.98278e-07
3.99303e-07
3.98488e-07
3.99303e-07
3.98129e-07
3.99472e-07
3.98394e-07
3.9923e-07
3.98785e-07
3.98988e-07
3.985e-07
3.98541e-07
3.98087e-07
3.99014e-07
3.9825e-07
3.98974e-07
3.98516e-07
3.99319e-07
3.98136e-07
3.99723e-07
3.97006e-07
4.00025e-07
3.96313e-07
4.02975e-07
3.73975e-07
4.1788e-07
3.97627e-07
3.98656e-07
3.97786e-07
3.98453e-07
3.98506e-07
3.98421e-07
3.9855e-07
3.98565e-07
3.98289e-07
3.99226e-07
3.97759e-07
3.99348e-07
3.97483e-07
3.99316e-07
3.97634e-07
3.98491e-07
3.98213e-07
3.98857e-07
3.98927e-07
3.99392e-07
3.98815e-07
3.98465e-07
3.98619e-07
3.98836e-07
3.99577e-07
3.98965e-07
3.97775e-07
3.98885e-07
3.98704e-07
3.9864e-07
3.979e-07
3.99409e-07
3.97512e-07
3.98819e-07
3.98587e-07
3.99203e-07
3.98539e-07
3.99084e-07
3.98578e-07
3.98972e-07
3.98315e-07
3.99278e-07
3.98116e-07
4.0011e-07
3.97897e-07
3.99824e-07
3.95488e-07
4.02278e-07
3.75565e-07
4.17028e-07
3.99457e-07
3.98119e-07
3.98331e-07
3.98565e-07
3.98576e-07
3.98557e-07
3.98438e-07
3.98498e-07
3.98958e-07
3.98188e-07
3.99208e-07
3.98191e-07
4.00337e-07
3.9774e-07
4.00049e-07
3.99222e-07
4.00118e-07
3.98115e-07
3.99362e-07
3.98634e-07
3.99538e-07
3.98571e-07
3.99632e-07
3.98595e-07
3.9922e-07
3.97448e-07
3.995e-07
3.98749e-07
3.99561e-07
3.98368e-07
3.99154e-07
3.99043e-07
3.99073e-07
3.98882e-07
3.99084e-07
3.98541e-07
3.99019e-07
3.97951e-07
3.9892e-07
3.9839e-07
3.98974e-07
3.97951e-07
3.98899e-07
3.97972e-07
3.99793e-07
3.97572e-07
4.00258e-07
3.96852e-07
4.01745e-07
3.75459e-07
4.18001e-07
3.97368e-07
3.98702e-07
3.99123e-07
3.98475e-07
3.98536e-07
3.9856e-07
3.98587e-07
3.98444e-07
3.9845e-07
3.99374e-07
3.98078e-07
3.99489e-07
3.97688e-07
4.00455e-07
3.97749e-07
3.98813e-07
3.97587e-07
3.9946e-07
3.97894e-07
3.98695e-07
3.98307e-07
3.98885e-07
3.98327e-07
3.9841e-07
3.98887e-07
3.98652e-07
3.98764e-07
3.98897e-07
3.98e-07
3.99157e-07
3.98031e-07
3.98959e-07
3.97657e-07
3.99357e-07
3.9822e-07
3.98817e-07
3.98308e-07
3.99264e-07
3.98508e-07
3.98757e-07
3.98409e-07
3.99232e-07
3.98303e-07
3.98929e-07
3.97638e-07
3.99823e-07
3.96517e-07
4.00153e-07
3.96454e-07
4.01756e-07
3.75629e-07
4.17708e-07
3.9895e-07
3.97647e-07
3.97794e-07
3.9821e-07
3.98534e-07
3.98432e-07
3.98469e-07
3.98441e-07
3.98618e-07
3.98182e-07
3.98844e-07
3.98191e-07
3.99531e-07
3.98026e-07
3.99174e-07
3.98663e-07
4.00229e-07
3.97903e-07
3.99732e-07
3.9839e-07
3.99284e-07
3.98391e-07
4.00107e-07
3.9839e-07
3.99535e-07
3.98476e-07
3.99947e-07
3.98254e-07
3.99776e-07
3.98237e-07
3.98822e-07
3.98787e-07
3.99214e-07
3.98286e-07
3.993e-07
3.98334e-07
3.98466e-07
3.98084e-07
3.98811e-07
3.98101e-07
3.98778e-07
3.98257e-07
3.99012e-07
3.98419e-07
3.99313e-07
3.97427e-07
4.00875e-07
3.97111e-07
4.00078e-07
3.96701e-07
4.00174e-07
3.74915e-07
4.18514e-07
3.97444e-07
3.99085e-07
3.97415e-07
3.98531e-07
3.98464e-07
3.98408e-07
3.98408e-07
3.98632e-07
3.9839e-07
3.98756e-07
3.98258e-07
3.99283e-07
3.97603e-07
3.98991e-07
3.97897e-07
3.99912e-07
3.9806e-07
3.99681e-07
3.98311e-07
3.98435e-07
3.99036e-07
3.99058e-07
3.98982e-07
3.98682e-07
3.99123e-07
3.98505e-07
3.98015e-07
3.9841e-07
3.98432e-07
3.98771e-07
3.98184e-07
3.99153e-07
3.98321e-07
3.9883e-07
3.98534e-07
3.99155e-07
3.98309e-07
3.99422e-07
3.98343e-07
3.99462e-07
3.98179e-07
3.99159e-07
3.98419e-07
3.99383e-07
3.98186e-07
3.99505e-07
3.97914e-07
3.99741e-07
3.97729e-07
4.00427e-07
3.97277e-07
4.0131e-07
3.75577e-07
4.17491e-07
3.99292e-07
3.98343e-07
3.99949e-07
3.9838e-07
3.98391e-07
3.9845e-07
3.98409e-07
3.98416e-07
3.98725e-07
3.98463e-07
3.99287e-07
3.97929e-07
4.00311e-07
3.98352e-07
3.99573e-07
3.98082e-07
3.99183e-07
3.98861e-07
3.99206e-07
3.98423e-07
3.99433e-07
3.97742e-07
3.99701e-07
3.97277e-07
3.99107e-07
3.9827e-07
3.99227e-07
3.99108e-07
3.99484e-07
3.98263e-07
3.99124e-07
3.98612e-07
3.98667e-07
3.98466e-07
3.99023e-07
3.98678e-07
3.99432e-07
3.98836e-07
3.985e-07
3.98237e-07
3.99112e-07
3.97909e-07
3.98779e-07
3.98468e-07
3.9918e-07
3.98194e-07
3.99037e-07
3.97894e-07
3.99805e-07
3.98074e-07
4.00097e-07
3.96423e-07
4.0089e-07
3.76418e-07
4.19453e-07
3.97284e-07
3.98498e-07
3.97768e-07
3.98519e-07
3.98381e-07
3.98423e-07
3.98422e-07
3.98728e-07
3.9835e-07
3.9927e-07
3.97909e-07
3.99525e-07
3.98327e-07
3.98299e-07
3.97585e-07
4.00779e-07
3.98415e-07
3.98404e-07
3.98388e-07
3.98599e-07
3.97888e-07
4.00208e-07
3.98443e-07
3.99401e-07
3.99971e-07
3.99409e-07
3.98935e-07
3.98753e-07
3.98008e-07
3.99203e-07
3.98403e-07
3.99794e-07
3.98166e-07
3.99686e-07
3.98524e-07
3.9901e-07
3.97686e-07
3.98433e-07
3.98421e-07
3.99063e-07
3.98498e-07
3.99142e-07
3.98216e-07
3.98831e-07
3.98057e-07
3.99225e-07
3.98504e-07
3.99454e-07
3.98098e-07
3.99715e-07
3.97474e-07
4.0085e-07
3.96192e-07
4.01115e-07
3.74577e-07
4.18973e-07
3.9895e-07
3.96528e-07
3.98463e-07
3.9773e-07
3.98353e-07
3.98396e-07
3.98599e-07
3.98482e-07
3.98951e-07
3.98179e-07
3.99715e-07
3.98254e-07
3.98988e-07
3.98259e-07
4.00136e-07
3.97559e-07
4.00456e-07
3.99281e-07
4.00425e-07
3.98112e-07
4.02042e-07
3.98256e-07
3.97866e-07
3.98545e-07
3.98824e-07
3.97355e-07
3.99894e-07
3.97737e-07
3.98915e-07
3.9899e-07
3.99633e-07
3.98216e-07
3.99004e-07
3.98357e-07
3.98978e-07
3.97788e-07
3.99005e-07
3.99189e-07
3.99152e-07
3.98457e-07
3.99098e-07
3.98273e-07
3.9911e-07
3.98481e-07
3.98891e-07
3.98122e-07
3.99017e-07
3.98261e-07
3.99213e-07
3.97804e-07
3.99448e-07
3.96832e-07
4.0156e-07
3.96756e-07
4.0094e-07
3.74408e-07
4.18859e-07
3.97696e-07
4.01152e-07
3.96398e-07
3.98728e-07
3.98402e-07
3.985e-07
3.9853e-07
3.98543e-07
3.98417e-07
3.99482e-07
3.97762e-07
4.00082e-07
3.9776e-07
3.9982e-07
3.98377e-07
4.00593e-07
3.98131e-07
3.96726e-07
3.97898e-07
3.99237e-07
3.97561e-07
3.99225e-07
3.98716e-07
3.98852e-07
3.9874e-07
3.99059e-07
3.98939e-07
3.9868e-07
3.98818e-07
3.99047e-07
3.98172e-07
3.98826e-07
3.98129e-07
3.98749e-07
3.98133e-07
3.98194e-07
3.98975e-07
4.00256e-07
3.97754e-07
3.9895e-07
3.98809e-07
3.98714e-07
3.98121e-07
3.9897e-07
3.98377e-07
3.98746e-07
3.98299e-07
3.99005e-07
3.98145e-07
3.9958e-07
3.98264e-07
3.99772e-07
3.97143e-07
4.00821e-07
3.96056e-07
4.01946e-07
3.74441e-07
4.19096e-07
3.98682e-07
3.97339e-07
4.00327e-07
3.98708e-07
3.98502e-07
3.98544e-07
3.98537e-07
3.98401e-07
3.98435e-07
3.98254e-07
3.99898e-07
3.97207e-07
4.00256e-07
3.97171e-07
3.99987e-07
3.97722e-07
3.9933e-07
3.98606e-07
4.01011e-07
3.98812e-07
3.99252e-07
3.98498e-07
3.98148e-07
3.99123e-07
4.00293e-07
3.98351e-07
3.98541e-07
3.9847e-07
3.99303e-07
3.98324e-07
3.99238e-07
3.98233e-07
3.99533e-07
3.98761e-07
3.99024e-07
3.9817e-07
3.99864e-07
3.97397e-07
3.98167e-07
3.9889e-07
3.98969e-07
3.98266e-07
3.99443e-07
3.9856e-07
3.98866e-07
3.98604e-07
3.9905e-07
3.98563e-07
3.99081e-07
3.97896e-07
3.99536e-07
3.97845e-07
3.99837e-07
3.97015e-07
4.00751e-07
3.96051e-07
4.01071e-07
3.74625e-07
4.2008e-07
3.97485e-07
3.98379e-07
3.98994e-07
3.98453e-07
3.9846e-07
3.98508e-07
3.98506e-07
3.98455e-07
3.98353e-07
3.99075e-07
3.97665e-07
4.0057e-07
3.97679e-07
4.02052e-07
3.98558e-07
3.98462e-07
3.98721e-07
3.99791e-07
3.97266e-07
3.98962e-07
3.98039e-07
3.98527e-07
3.99306e-07
3.98885e-07
3.98344e-07
3.98883e-07
3.98783e-07
3.99585e-07
3.98675e-07
3.97676e-07
3.98177e-07
3.99064e-07
3.98476e-07
3.98459e-07
3.98451e-07
3.99133e-07
3.98646e-07
3.98666e-07
3.99081e-07
3.99482e-07
3.97745e-07
3.98895e-07
3.98506e-07
3.98732e-07
3.98207e-07
3.98965e-07
3.98294e-07
3.98738e-07
3.98064e-07
3.99248e-07
3.98358e-07
3.99326e-07
3.98299e-07
4.00084e-07
3.97571e-07
4.00695e-07
3.96815e-07
4.01771e-07
3.73205e-07
4.19068e-07
3.99125e-07
3.9831e-07
3.97719e-07
3.98376e-07
3.98435e-07
3.98362e-07
3.98481e-07
3.98414e-07
3.98694e-07
3.98296e-07
3.99829e-07
3.97649e-07
3.9955e-07
3.97036e-07
3.99456e-07
3.98011e-07
3.99317e-07
3.98373e-07
3.99332e-07
3.99047e-07
3.99482e-07
3.9971e-07
3.99584e-07
3.98447e-07
3.99452e-07
3.98517e-07
3.98975e-07
3.98408e-07
4.00025e-07
3.98824e-07
4.01023e-07
3.98731e-07
3.99322e-07
3.9812e-07
3.99435e-07
3.9849e-07
3.99314e-07
3.98258e-07
3.99246e-07
3.97708e-07
3.99066e-07
3.98512e-07
3.99166e-07
3.98298e-07
3.99019e-07
3.98428e-07
3.99115e-07
3.98066e-07
3.98989e-07
3.98291e-07
3.9858e-07
3.98055e-07
3.98822e-07
3.98133e-07
4.0033e-07
3.97624e-07
3.99902e-07
3.96066e-07
4.0147e-07
3.74068e-07
4.19027e-07
3.9783e-07
3.98269e-07
3.98418e-07
3.98913e-07
3.98529e-07
3.98441e-07
3.98511e-07
3.98387e-07
3.9826e-07
3.99135e-07
3.9743e-07
3.99679e-07
3.97841e-07
3.99704e-07
3.98249e-07
4.00129e-07
3.98813e-07
3.99001e-07
3.98167e-07
3.98469e-07
3.98344e-07
3.99177e-07
3.98233e-07
3.98864e-07
3.98448e-07
3.98679e-07
3.98774e-07
3.98988e-07
3.98886e-07
3.97009e-07
3.98557e-07
3.98785e-07
3.98918e-07
3.99196e-07
3.98586e-07
3.98728e-07
3.98538e-07
3.98983e-07
3.99043e-07
3.98923e-07
3.98504e-07
3.99238e-07
3.98239e-07
3.98609e-07
3.98207e-07
3.98979e-07
3.98205e-07
3.99063e-07
3.98049e-07
3.98983e-07
3.98405e-07
3.99381e-07
3.98541e-07
3.99328e-07
3.98271e-07
3.98433e-07
3.98472e-07
4.00703e-07
3.95968e-07
4.01451e-07
3.74842e-07
4.18391e-07
3.98745e-07
3.98926e-07
3.99086e-07
3.98354e-07
3.98426e-07
3.98373e-07
3.98457e-07
3.98433e-07
3.98511e-07
3.98486e-07
4.00157e-07
3.97248e-07
4.00268e-07
3.96556e-07
4.002e-07
3.97653e-07
4.00216e-07
3.97527e-07
3.99318e-07
3.99061e-07
3.99984e-07
3.97539e-07
4.00087e-07
3.97797e-07
4.00151e-07
3.98443e-07
4.00044e-07
3.98627e-07
3.99367e-07
3.98607e-07
3.99682e-07
3.98294e-07
3.99149e-07
3.98307e-07
3.98041e-07
3.98401e-07
3.98586e-07
3.98517e-07
3.99499e-07
3.97704e-07
3.99213e-07
3.97792e-07
3.98925e-07
3.9844e-07
3.99086e-07
3.98379e-07
3.99327e-07
3.9839e-07
3.98829e-07
3.98261e-07
3.99064e-07
3.9824e-07
3.9905e-07
3.9812e-07
3.98666e-07
3.98491e-07
3.99182e-07
3.97457e-07
4.0047e-07
3.96874e-07
3.99647e-07
3.74612e-07
4.2012e-07
3.97898e-07
3.98191e-07
3.97479e-07
3.98508e-07
3.98354e-07
3.98541e-07
3.984e-07
3.98373e-07
3.98423e-07
3.98901e-07
3.97764e-07
4.00355e-07
3.97507e-07
4.01326e-07
3.98359e-07
3.99932e-07
3.98711e-07
3.99848e-07
3.9793e-07
3.99477e-07
3.98032e-07
4.00096e-07
3.98764e-07
3.99112e-07
3.98812e-07
3.98996e-07
3.99391e-07
3.984e-07
3.99572e-07
3.98476e-07
3.98329e-07
3.97814e-07
3.98804e-07
3.98765e-07
3.9871e-07
3.99782e-07
3.987e-07
3.99653e-07
3.98302e-07
3.98602e-07
3.98718e-07
3.99435e-07
3.98711e-07
3.99199e-07
3.98221e-07
3.99031e-07
3.97792e-07
3.99006e-07
3.98032e-07
3.98839e-07
3.97995e-07
3.98767e-07
3.98354e-07
3.99391e-07
3.98129e-07
3.99391e-07
3.98486e-07
3.99337e-07
3.97986e-07
4.00325e-07
3.97113e-07
4.01528e-07
3.73384e-07
4.18621e-07
3.98456e-07
3.98048e-07
3.9911e-07
3.98451e-07
3.9851e-07
3.98185e-07
3.98416e-07
3.98437e-07
3.98541e-07
3.98573e-07
3.99424e-07
3.9814e-07
3.99683e-07
3.97593e-07
4.00176e-07
3.97957e-07
3.99146e-07
3.97222e-07
4.00719e-07
3.98591e-07
3.99159e-07
3.98047e-07
3.98482e-07
3.98517e-07
3.98932e-07
3.98382e-07
3.98979e-07
3.98307e-07
3.99492e-07
3.98339e-07
3.99369e-07
3.98482e-07
4.00336e-07
3.98842e-07
3.98815e-07
3.9816e-07
3.98332e-07
3.97987e-07
4.00463e-07
3.97853e-07
3.99263e-07
3.97754e-07
3.99397e-07
3.97821e-07
3.9898e-07
3.98535e-07
3.99103e-07
3.98205e-07
3.99338e-07
3.98474e-07
3.991e-07
3.98408e-07
3.99046e-07
3.98281e-07
3.99195e-07
3.97691e-07
3.99228e-07
3.9821e-07
3.99382e-07
3.97938e-07
4.0036e-07
3.96294e-07
4.01515e-07
3.74526e-07
4.19342e-07
3.9781e-07
3.98735e-07
3.97869e-07
3.98623e-07
3.97603e-07
3.98457e-07
3.98537e-07
3.98364e-07
3.98451e-07
3.99016e-07
3.98075e-07
3.99313e-07
3.97621e-07
4.00373e-07
3.98344e-07
3.98735e-07
3.98689e-07
4.01784e-07
3.98274e-07
3.99735e-07
3.9968e-07
3.99046e-07
3.99326e-07
3.99214e-07
3.98461e-07
3.99385e-07
3.98376e-07
3.98696e-07
3.98365e-07
3.98464e-07
3.98224e-07
3.98749e-07
3.98764e-07
3.98449e-07
3.9956e-07
3.98955e-07
3.98809e-07
3.99445e-07
3.98565e-07
3.97406e-07
3.98708e-07
3.98624e-07
3.98675e-07
3.99244e-07
3.98555e-07
3.98725e-07
3.98376e-07
3.99296e-07
3.98039e-07
3.98651e-07
3.98163e-07
3.98691e-07
3.98538e-07
3.98487e-07
3.98311e-07
3.99234e-07
3.97913e-07
3.988e-07
3.98547e-07
3.98909e-07
3.97348e-07
4.00528e-07
3.97265e-07
4.01838e-07
3.74796e-07
4.1883e-07
3.98573e-07
3.9766e-07
3.98574e-07
3.97492e-07
3.99177e-07
3.98559e-07
3.98417e-07
3.98426e-07
3.98477e-07
3.98323e-07
3.99654e-07
3.98006e-07
3.99925e-07
3.97319e-07
3.99457e-07
3.97435e-07
3.99859e-07
3.96886e-07
3.98584e-07
3.98059e-07
3.97976e-07
3.97844e-07
3.98384e-07
3.98217e-07
3.99438e-07
3.98106e-07
3.99141e-07
3.98386e-07
4.00002e-07
3.99678e-07
3.99152e-07
4.00046e-07
3.99068e-07
3.98594e-07
3.99016e-07
3.97672e-07
3.99079e-07
3.98272e-07
3.99047e-07
3.98571e-07
3.997e-07
3.98769e-07
3.99133e-07
3.98054e-07
3.98726e-07
3.98331e-07
3.99112e-07
3.98154e-07
3.99515e-07
3.98468e-07
3.98727e-07
3.98477e-07
3.98789e-07
3.98209e-07
3.99083e-07
3.9844e-07
3.99326e-07
3.98593e-07
3.98964e-07
3.98122e-07
3.99826e-07
3.97502e-07
4.00182e-07
3.96636e-07
4.01331e-07
3.75e-07
4.19032e-07
3.97907e-07
3.98816e-07
3.98389e-07
3.99584e-07
3.9841e-07
3.98302e-07
3.98476e-07
3.98381e-07
3.98452e-07
3.98987e-07
3.97586e-07
3.99748e-07
3.97708e-07
4.00318e-07
3.98062e-07
4.00756e-07
3.98267e-07
3.99879e-07
3.98827e-07
3.99781e-07
3.9934e-07
3.99515e-07
4.00481e-07
4.00238e-07
3.98605e-07
3.9908e-07
3.98918e-07
3.99102e-07
3.98774e-07
3.98115e-07
3.98617e-07
3.98917e-07
3.97799e-07
3.989e-07
3.98585e-07
3.98106e-07
3.9885e-07
3.99105e-07
3.98693e-07
3.98815e-07
3.98948e-07
3.98365e-07
3.98506e-07
3.98823e-07
3.98475e-07
3.98962e-07
3.98444e-07
3.99101e-07
3.98226e-07
3.99169e-07
3.97826e-07
3.98672e-07
3.98325e-07
3.98926e-07
3.98243e-07
3.98687e-07
3.98339e-07
3.9869e-07
3.98205e-07
3.98873e-07
3.98086e-07
3.99393e-07
3.98153e-07
4.0013e-07
3.96335e-07
4.01202e-07
3.74616e-07
4.17946e-07
3.98642e-07
3.97775e-07
3.98264e-07
3.97956e-07
3.98278e-07
3.98376e-07
3.98433e-07
3.98334e-07
3.98456e-07
3.98503e-07
3.99752e-07
3.97639e-07
3.99627e-07
3.97229e-07
3.99862e-07
3.97586e-07
4.00066e-07
3.9791e-07
3.99881e-07
3.97331e-07
3.99073e-07
3.97292e-07
3.99962e-07
3.96333e-07
3.98896e-07
3.9847e-07
3.98594e-07
3.98506e-07
3.99053e-07
3.98394e-07
3.99802e-07
3.9922e-07
3.98957e-07
3.99642e-07
3.98839e-07
3.98954e-07
3.99037e-07
3.98635e-07
3.98361e-07
3.98554e-07
3.98903e-07
3.98611e-07
3.98913e-07
3.98587e-07
3.99443e-07
3.98728e-07
3.99092e-07
3.98088e-07
3.98959e-07
3.98285e-07
3.99227e-07
3.98468e-07
3.98956e-07
3.98366e-07
3.99055e-07
3.98077e-07
3.98994e-07
3.98353e-07
3.99662e-07
3.9824e-07
3.99255e-07
3.98028e-07
3.99257e-07
3.9748e-07
4.0159e-07
3.95993e-07
4.02325e-07
3.74405e-07
4.191e-07
3.97954e-07
3.99482e-07
3.9838e-07
3.98377e-07
3.98443e-07
3.98463e-07
3.98495e-07
3.98346e-07
3.98436e-07
3.98679e-07
3.98242e-07
3.99883e-07
3.98189e-07
3.99745e-07
3.98747e-07
4.00902e-07
3.97805e-07
4.00628e-07
3.98607e-07
3.99864e-07
3.99461e-07
3.99081e-07
3.98932e-07
3.98762e-07
3.99858e-07
3.98737e-07
3.99508e-07
3.99526e-07
3.99107e-07
3.99144e-07