/*--------------------------------*- C++ -*----------------------------------*\
| =========                 |                                                 |
| \\      /  F ield         | OpenFOAM: The Open Source CFD Toolbox           |
|  \\    /   O peration     | Version:  2206                                  |
|   \\  /    A nd           | Website:  www.openfoam.com                      |
|    \\/     M anipulation  |                                                 |
\*---------------------------------------------------------------------------*/
FoamFile
{
    version     2.0;
    format      ascii;
    arch        "LSB;label=32;scalar=64";
    class       volScalarField;
    location    "160";
    object      p;
}
// * * * * * * * * * * * * * * * * * * * * * * * * * * * * * * * * * * * * * //

dimensions      [1 -1 -2 0 0 0 0];

internalField   nonuniform List<scalar> 
93840
(
2.11109
0.627538
2.04609
1.40015
0.704134
1.84097
0.671819
1.17433
0.763344
1.66865
1.14573
0.99282
1.16223
0.792013
1.51711
0.97673
1.10539
1.00967
1.26715
0.834289
1.39361
1.08298
0.989592
1.06816
0.79013
1.21941
0.933006
1.31644
0.973456
1.08869
1.00817
1.20244
0.873447
1.17354
0.960546
1.27906
1.09708
0.959848
1.07639
0.963147
1.19256
0.964132
1.14341
1.00354
1.25007
0.977859
1.10046
0.978575
1.1781
0.891258
1.14878
1.0151
1.13141
1.02873
1.22764
1.08345
0.992335
1.06004
0.891479
1.16238
1.00959
1.10986
1.07078
1.12092
1.08114
1.20677
0.972731
1.04401
0.962022
1.11347
0.953382
1.10754
1.04992
1.08752
1.07904
1.10183
1.10868
1.17622
1.07507
1.01595
1.07462
1.01954
1.12925
1.02708
1.0833
1.09879
1.07684
1.13224
1.08067
1.15595
1.12883
0.958232
1.03691
0.918017
1.11417
0.92645
1.06392
1.07401
1.05051
1.10221
1.06864
1.12202
1.07105
1.15601
1.07126
1.09445
0.945285
1.08574
0.950701
1.11861
1.0624
1.06014
1.11036
1.06709
1.13401
1.07377
1.14061
1.08092
1.15617
1.01461
0.952773
1.0606
0.98296
1.14591
0.961599
1.03995
1.06795
1.03772
1.08548
1.06498
1.10403
1.08603
1.11177
1.09009
1.14354
0.960633
1.103
0.917411
1.03833
0.926186
1.09383
1.07465
1.04492
1.10797
1.07109
1.11854
1.06541
1.12204
1.07774
1.11544
1.08669
1.12825
0.91693
0.948085
1.08689
0.967602
1.13664
1.00033
1.02378
1.0773
1.05352
1.07183
1.03402
1.08139
1.06941
1.09385
1.08238
1.10935
1.08227
1.11421
0.886324
1.11486
0.922219
1.10185
1.00322
1.07853
1.08042
1.04477
1.08651
1.05458
1.09454
1.07046
1.11064
1.06912
1.10019
1.06767
1.09818
1.07252
1.10271
0.863263
0.971316
1.10051
0.911466
1.08375
1.00469
1.01585
1.07743
1.05643
1.06737
1.04275
1.06548
1.04184
1.07686
1.07004
1.09574
1.08257
1.08725
1.0602
1.09076
0.843072
1.09626
0.939115
1.15718
1.02632
1.05741
1.09169
1.05818
1.07543
1.04879
1.07785
1.05524
1.09966
1.07667
1.10012
1.07854
1.08896
1.07075
1.07712
1.05415
1.07897
0.832628
0.975889
1.10352
0.912227
1.05695
1.01904
1.00742
1.06809
1.05098
1.06429
1.05457
1.06265
1.04644
1.06486
1.04336
1.0717
1.07437
1.08191
1.07371
1.06935
1.04656
1.06825
0.817857
1.07355
0.946399
1.12686
1.03314
1.03756
1.08966
1.06766
1.07366
1.0602
1.08165
1.04849
1.07709
1.05905
1.0827
1.08251
1.08429
1.07564
1.07663
1.06146
1.06129
1.03737
1.05871
0.822813
0.947379
1.09313
0.881031
1.04051
1.03499
1.00769
1.05587
1.04277
1.06521
1.04247
1.06257
1.05448
1.06701
1.04664
1.06246
1.04636
1.07948
1.07343
1.07361
1.06224
1.05332
1.02882
1.0501
0.813057
1.0936
0.935552
1.15631
1.05562
1.02409
1.08206
1.06145
1.07175
1.06286
1.06979
1.05245
1.07278
1.04879
1.07774
1.06538
1.06767
1.08083
1.06053
1.07129
1.06762
1.05325
1.04582
1.02089
1.03538
0.789964
0.946602
1.09826
0.882533
1.01548
1.03956
1.00976
1.0366
1.02316
1.05428
1.03761
1.06174
1.04761
1.06224
1.05007
1.06098
1.04142
1.06189
1.04843
1.07667
1.07032
1.06711
1.05175
1.0382
1.01161
1.01693
0.760775
1.10676
0.926559
1.15438
1.07427
1.02577
1.06873
1.05206
1.06115
1.05471
1.05754
1.05141
1.06698
1.05489
1.06991
1.03988
1.06515
1.05577
1.06484
1.06895
1.05988
1.06413
1.05876
1.04686
1.0306
1.00074
1.05985
0.798212
0.986564
1.10786
0.909602
0.996704
1.03818
1.01362
1.03121
1.01578
1.03749
1.02319
1.05478
1.03005
1.0544
1.04462
1.05859
1.04356
1.05248
1.04132
1.05747
1.04967
1.06388
1.06337
1.05868
1.04119
1.0246
0.993571
1.04962
0.793437
1.09813
0.943812
1.13588
1.08815
1.02671
1.06721
1.03631
1.05664
1.04931
1.07406
1.05725
1.06695
1.0512
1.06438
1.04805
1.06481
1.04238
1.05393
1.05693
1.05986
1.06294
1.05867
1.05977
1.05472
1.03638
1.02089
0.991155
1.04155
0.820301
1.01332
1.09482
0.93121
0.983738
1.03536
1.02007
1.03576
1.02239
1.03155
1.02277
1.03558
1.02273
1.04876
1.03516
1.04916
1.04191
1.05317
1.04158
1.05161
1.03476
1.05136
1.05051
1.06126
1.05762
1.05066
1.03243
1.01869
0.987158
1.03517
0.80836
1.0809
0.940487
1.11668
1.10104
1.02568
1.05813
1.02306
1.04232
1.03159
1.06643
1.04129
1.06278
1.05232
1.06149
1.04819
1.06411
1.04691
1.05517
1.03963
1.05626
1.05868
1.06096
1.05883
1.05539
1.05398
1.04727
1.02927
1.01789
0.984338
1.03088
0.83165
1.01307
1.09777
0.96684
0.98242
1.03799
1.02483
1.04463
1.03425
1.03209
1.03161
1.02791
1.018
1.04739
1.02226
1.04249
1.03641
1.04332
1.03925
1.05168
1.04363
1.05017
1.03068
1.04788
1.04751
1.06109
1.05352
1.04412
1.02638
1.01579
0.980902
1.02804
0.816685
1.06503
0.936213
1.09546
1.09639
1.01849
1.05217
1.00943
1.02964
1.01737
1.05319
1.02889
1.06116
1.03866
1.04748
1.05341
1.05965
1.04245
1.06766
1.04994
1.04599
1.04223
1.05033
1.05695
1.05293
1.05451
1.05069
1.05078
1.04112
1.02396
1.01456
0.979478
1.02608
0.838636
0.994702
1.1028
0.990274
0.980821
1.03871
1.02337
1.04575
1.03609
1.04254
1.03799
1.0466
1.02784
1.02925
1.01778
1.03319
1.02399
1.03712
1.03383
1.0404
1.04102
1.04617
1.04015
1.04522
1.02949
1.04592
1.04273
1.05526
1.04728
1.03835
1.02192
1.01143
0.977794
1.02514
0.822782
1.06793
0.958371
1.08064
1.08278
1.01498
1.04992
1.0151
1.01787
1.01236
1.04316
1.02852
1.04151
1.03129
1.05091
1.04382
1.04273
1.05322
1.05776
1.03895
1.06294
1.05052
1.04515
1.04277
1.0516
1.05211
1.05067
1.0565
1.04673
1.04628
1.03571
1.01959
1.01382
0.977896
1.02472
0.84433
0.977794
1.09158
0.999509
0.975157
1.03515
1.02126
1.04309
1.02787
1.04586
1.04194
1.04914
1.04514
1.0391
1.03358
1.03357
1.01869
1.03423
1.02285
1.03523
1.03127
1.03768
1.03957
1.04662
1.03335
1.0432
1.02723
1.04424
1.04132
1.0551
1.04288
1.03329
1.01813
1.00824
0.976375
1.02466
0.827848
1.083
0.970559
1.07512
1.07069
1.00698
1.05274
1.01888
1.01958
1.01556
1.02691
1.01939
1.02877
1.02143
1.03792
1.03907
1.04033
1.0563
1.04165
1.05588
1.05008
1.04109
1.05563
1.04965
1.04531
1.03939
1.05072
1.05305
1.03084
1.05303
1.04395
1.04252
1.03079
1.01603
1.01405
0.977117
1.02465
0.848967
0.987534
1.08721
1.01235
0.965192
1.02979
1.01296
1.03217
1.02278
1.03725
1.0322
1.03238
1.05013
1.04815
1.05006
1.03054
1.03306
1.03615
1.01462
1.03259
1.0242
1.03443
1.03336
1.03523
1.03537
1.0435
1.02683
1.0399
1.03047
1.06451
1.03914
1.05043
1.03936
1.02813
1.01413
1.00935
0.975649
1.02486
0.832108
1.08063
0.995372
1.06631
1.06953
1.00898
1.05798
1.02372
1.02339
1.03181
1.01342
1.02525
1.02119
1.03067
1.0295
1.02296
1.04599
1.04072
1.03597
1.06179
1.03932
1.05371
1.04641
1.04398
1.05206
1.04449
1.04546
1.03672
1.04661
1.05275
1.03287
1.05039
1.04285
1.03892
1.02501
1.01232
1.01371
0.977335
1.02533
0.853522
1.01117
1.07454
1.01382
0.959868
1.02505
1.01409
1.02065
1.01962
1.02768
1.02602
1.03501
1.03759
1.04154
1.04207
1.03137
1.04783
1.02845
1.02953
1.03693
1.01426
1.04063
1.02437
1.03562
1.03371
1.03679
1.03448
1.04224
1.02552
1.04329
1.03158
1.06159
1.03755
1.04427
1.03651
1.02658
1.00998
1.0085
0.976149
1.0261
0.836819
1.06903
1.00968
1.06213
1.07061
1.0087
1.06618
1.02317
1.02726
1.03445
1.01769
1.03715
1.01952
1.03135
1.02215
1.03187
1.02175
1.02553
1.04841
1.04002
1.04205
1.05823
1.03678
1.05827
1.04821
1.04143
1.05266
1.04436
1.04253
1.0406
1.0455
1.04998
1.03935
1.05142
1.03826
1.03515
1.02203
1.00822
1.01235
0.977838
1.02675
0.85826
1.01973
1.06019
1.01113
0.962803
1.0147
1.01764
1.0115
1.0201
1.01992
1.02463
1.02982
1.03077
1.04306
1.02823
1.03886
1.04494
1.03213
1.05217
1.02869
1.02429
1.03866
1.02538
1.03978
1.02883
1.03534
1.03362
1.03812
1.02965
1.04038
1.02825
1.04276
1.03466
1.06033
1.0366
1.0427
1.03292
1.02431
1.00615
1.01159
0.977895
1.02721
0.840538
1.06014
1.02543
1.06405
1.07125
1.01522
1.0718
1.01942
1.02647
1.02939
1.01538
1.02912
1.02155
1.03378
1.01289
1.03686
1.01592
1.02783
1.03137
1.02072
1.04218
1.04316
1.04225
1.0479
1.03823
1.05208
1.05487
1.03812
1.05187
1.04369
1.04227
1.042
1.04675
1.05026
1.03969
1.04622
1.03376
1.03042
1.02302
1.00554
1.00754
0.97934
1.02759
0.860981
1.02212
1.04777
1.01912
0.970976
1.01342
1.02361
1.00363
1.02191
1.00958
1.02645
1.01769
1.02541
1.03155
1.027
1.03242
1.03602
1.03624
1.04198
1.03695
1.05179
1.03379
1.03145
1.03489
1.0351
1.0301
1.03377
1.03596
1.03265
1.03703
1.02654
1.04008
1.02924
1.04511
1.03561
1.05896
1.03338
1.04057
1.02804
1.02571
1.00138
1.01124
0.979532
1.02769
0.843586
1.04903
1.02155
1.05514
1.06178
1.01335
1.07129
1.01126
1.03323
1.02635
1.02859
1.03357
1.02929
1.03074
1.0145
1.04394
1.01988
1.03755
1.0205
1.02893
1.03153
1.02272
1.03949
1.03939
1.04275
1.03988
1.04051
1.03888
1.04989
1.03749
1.05222
1.03971
1.04387
1.04236
1.04747
1.05091
1.03884
1.04548
1.03057
1.02624
1.0255
1.0039
1.00928
0.980595
1.02761
0.863073
1.01172
1.02432
1.03294
0.977047
1.0116
1.02382
0.996254
1.02471
1.00551
1.02335
1.01293
1.02879
1.01116
1.02687
1.02754
1.0232
1.02162
1.03615
1.0394
1.04206
1.03352
1.05539
1.03591
1.03456
1.03265
1.03726
1.03972
1.03405
1.04421
1.03519
1.03868
1.03293
1.04219
1.02999
1.04429
1.03523
1.05185
1.03279
1.03807
1.02368
1.02574
1.00022
1.01712
0.980766
1.0272
0.844349
1.04619
1.01691
1.05821
1.04811
1.01246
1.06633
1.01018
1.03702
1.02442
1.0237
1.02082
1.02287
1.03147
1.02402
1.03796
1.00918
1.03647
1.01925
1.03376
1.02264
1.03072
1.03062
1.02086
1.03582
1.03674
1.04049
1.03272
1.03709
1.04695
1.04098
1.0429
1.04979
1.04436
1.04651
1.04344
1.04381
1.05122
1.03938
1.04402
1.03065
1.02428
1.02659
1.0008
1.01773
0.981568
1.02661
0.864131
1.00723
1.0194
1.03504
0.968694
1.01082
1.02494
0.995047
1.02574
0.99905
1.03203
1.0072
1.02429
1.01212
1.02693
1.0191
1.0264
1.0303
1.02383
1.02678
1.03805
1.03382
1.04391
1.03613
1.04832
1.03579
1.03964
1.03233
1.02568
1.03184
1.03305
1.03559
1.0371
1.03949
1.03626
1.04077
1.0311
1.04147
1.03049
1.05163
1.03246
1.04013
1.02046
1.02882
0.998971
1.01795
0.982126
1.02601
0.845985
1.03904
1.01645
1.04187
1.04026
1.01589
1.06292
1.01048
1.03957
1.02471
1.02614
1.01925
1.02815
1.02503
1.01816
1.03863
1.02185
1.03894
1.0164
1.03341
1.02161
1.0349
1.02328
1.02968
1.0341
1.02476
1.03138
1.03357
1.03456
1.04312
1.04254
1.04458
1.05228
1.04499
1.04749
1.04671
1.04344
1.04308
1.04075
1.0513
1.04075
1.03913
1.03309
1.02205
1.02867
0.998177
1.01989
0.982411
1.02569
0.866537
0.99591
1.01671
1.04038
0.97373
1.01589
1.01946
0.995365
1.02385
0.995026
1.02866
1.00089
1.03654
1.00542
1.02557
1.02145
1.02534
1.02465
1.02342
1.02971
1.027
1.03173
1.03979
1.03368
1.0429
1.03384
1.04125
1.03215
1.03778
1.03155
1.03217
1.0329
1.02831
1.03095
1.03865
1.03664
1.03501
1.03911
1.03032
1.0423
1.03452
1.0496
1.03276
1.04227
1.01782
1.02897
1.00041
1.01381
0.982107
1.02526
0.847972
1.04338
0.985145
1.0393
1.02758
1.01415
1.05413
1.01104
1.04145
1.03012
1.03386
1.02217
1.03479
1.02775
1.0299
1.03129
1.02556
1.03734
1.02574
1.0411
1.01917
1.03778
1.01844
1.03419
1.0269
1.02785
1.03169
1.03766
1.0333
1.02937
1.03213
1.04254
1.04015
1.04151
1.04833
1.04744
1.04437
1.04634
1.04025
1.0403
1.04488
1.04291
1.04093
1.03936
1.0381
1.02003
1.02915
1.00145
1.01804
0.982995
1.02482
0.868041
0.993949
1.05975
1.02953
0.972578
1.01942
1.01295
0.992831
1.02042
0.996262
1.02781
1.00127
1.03918
1.00344
1.03236
1.00758
1.02746
1.02003
1.02642
1.02044
1.02808
1.02909
1.02871
1.03486
1.0358
1.03453
1.0451
1.03512
1.03827
1.03114
1.03687
1.03472
1.03162
1.03439
1.02722
1.03012
1.03935
1.03858
1.03508
1.03973
1.02926
1.04289
1.03951
1.04834
1.0338
1.0468
1.01479
1.02978
0.999916
1.01203
0.982435
1.02431
0.849621
1.05026
0.986662
1.01955
1.02505
1.01431
1.04812
1.01618
1.04342
1.03432
1.04156
1.02682
1.03336
1.0183
1.03832
1.02193
1.02785
1.03694
1.02727
1.03681
1.02629
1.04423
1.02766
1.03706
1.02472
1.03768
1.03232
1.02893
1.02986
1.04247
1.03225
1.03204
1.03029
1.03815
1.03695
1.0439
1.04241
1.04659
1.04447
1.04364
1.03403
1.03969
1.04339
1.03988
1.03872
1.04021
1.04122
1.01653
1.02974
1.00102
1.01407
0.98304
1.02385
0.868981
0.982576
1.08429
1.02305
0.977178
1.019
1.00878
0.998167
1.02019
1.00277
1.03156
1.01417
1.03256
1.00313
1.03384
1.00385
1.03678
1.01006
1.0345
1.01741
1.02808
1.02677
1.02806
1.03375
1.02566
1.03106
1.0386
1.03771
1.04541
1.03389
1.04211
1.03018
1.03625
1.03439
1.0295
1.03159
1.03235
1.03038
1.03844
1.03781
1.03499
1.03607
1.02902
1.04827
1.03655
1.054
1.03235
1.0511
1.01418
1.02788
1.00037
1.01052
0.982318
1.02336
0.849834
1.0731
0.995699
1.01607
1.02143
1.01333
1.04618
1.02304
1.04167
1.03516
1.04153
1.02659
1.03805
1.02859
1.04169
1.02372
1.0374
1.02714
1.02755
1.04236
1.03095
1.04336
1.02445
1.041
1.02447
1.04083
1.02479
1.03254
1.02902
1.03515
1.03124
1.04101
1.03136
1.03875
1.03423
1.04245
1.03865
1.04259
1.04037
1.04694
1.04261
1.04246
1.03456
1.04075
1.04561
1.03793
1.03545
1.03729
1.04359
1.01792
1.02743
1.0021
1.01051
0.98256
1.02293
0.869774
0.987903
1.08244
0.999355
0.9758
1.01865
1.01125
1.00337
1.01839
1.00846
1.03772
1.02637
1.01336
1.00446
1.037
1.00593
1.03131
1.00684
1.03929
1.00848
1.03174
1.02817
1.03344
1.0208
1.02679
1.03843
1.02549
1.03139
1.03794
1.03849
1.03678
1.0371
1.04415
1.03206
1.04004
1.02772
1.03053
1.03273
1.03481
1.03619
1.03693
1.03774
1.03383
1.0368
1.0298
1.04955
1.03831
1.05587
1.03461
1.05065
1.01643
1.02502
1.00219
1.00666
0.982363
1.02228
0.851075
1.07989
1.00451
0.994219
1.02159
1.01509
1.04342
1.02749
1.03867
1.03388
1.04025
1.02401
1.03164
1.03427
1.03407
1.02788
1.04127
1.02965
1.03746
1.03114
1.03184
1.03673
1.02589
1.04332
1.02877
1.04459
1.02339
1.03924
1.02735
1.03531
1.02869
1.03234
1.03277
1.0369
1.03511
1.03494
1.03373
1.04349
1.03964
1.04614
1.03755
1.0476
1.04216
1.04062
1.03534
1.0425
1.04377
1.03454
1.0336
1.03842
1.04376
1.0196
1.02357
1.00366
1.00818
0.981628
1.02179
0.871288
1.00357
1.0817
0.998415
0.984122
1.02335
1.01475
1.01263
1.0199
1.01062
1.03534
1.02015
1.04201
1.02286
1.04256
1.0185
1.03692
1.00363
1.03288
1.00712
1.03756
1.01283
1.03522
1.0292
1.03283
1.0249
1.02844
1.03693
1.02607
1.02532
1.03283
1.03254
1.04404
1.03817
1.04662
1.03454
1.03961
1.03575
1.0314
1.03188
1.03504
1.04267
1.03513
1.03952
1.0332
1.03815
1.03145
1.05162
1.03892
1.05342
1.03522
1.04491
1.01902
1.02142
1.00179
1.00827
0.981598
1.02128
0.852614
1.06678
1.02059
0.990817
1.0185
1.0137
1.03628
1.0276
1.03503
1.03308
1.03376
1.04081
1.04407
1.021
1.03939
1.03299
1.03038
1.03257
1.03933
1.02979
1.03672
1.0322
1.03096
1.03982
1.02877
1.03813
1.03049
1.04008
1.02314
1.0373
1.02816
1.03348
1.03183
1.03825
1.03561
1.03344
1.03554
1.03363
1.03298
1.04581
1.03974
1.04769
1.03804
1.04628
1.04114
1.04237
1.0356
1.04359
1.04223
1.03213
1.03853
1.04067
1.04333
1.02259
1.01937
1.00098
1.01182
0.981194
1.02084
0.873049
0.99856
1.07344
0.988883
0.993085
1.02653
1.01636
1.0176
1.01774
1.01238
1.02915
1.02808
1.03675
1.02051
1.04672
1.02074
1.03166
1.01556
1.03615
1.01208
1.03195
1.00635
1.03811
1.01485
1.0349
1.02809
1.03683
1.02832
1.03325
1.03487
1.02867
1.02527
1.0331
1.03194
1.03815
1.03874
1.04716
1.03368
1.03998
1.02779
1.03351
1.03603
1.03529
1.04012
1.03552
1.04023
1.0341
1.04064
1.03262
1.05295
1.03775
1.05073
1.03481
1.04171
1.02046
1.01784
0.998999
1.00886
0.981475
1.02051
0.85598
1.07258
1.01842
0.976489
1.01577
1.01412
1.03188
1.0263
1.03002
1.03233
1.02985
1.03813
1.03737
1.0375
1.03904
1.02478
1.03521
1.03558
1.03302
1.03256
1.03526
1.0295
1.03851
1.0311
1.03405
1.03708
1.02788
1.04061
1.03275
1.0394
1.0225
1.03488
1.02966
1.03499
1.03085
1.03429
1.03625
1.03378
1.03573
1.0343
1.03988
1.04605
1.03952
1.04182
1.03732
1.04543
1.04015
1.0428
1.03572
1.04265
1.03945
1.03446
1.03803
1.03954
1.03939
1.02149
1.01821
0.998047
1.00818
0.980915
1.02046
0.875388
1.00211
1.07837
1.00221
1.0042
1.03265
1.01756
1.02423
1.01786
1.01682
1.02507
1.02938
1.02676
1.02063
1.04653
1.02373
1.05045
1.01753
1.03873
1.02184
1.02896
1.01411
1.03
1.01053
1.036
1.01384
1.03283
1.02741
1.03867
1.02814
1.03437
1.03179
1.03436
1.02345
1.03647
1.03871
1.0433
1.03958
1.04596
1.03071
1.04646
1.02502
1.0336
1.03754
1.03492
1.03225
1.03579
1.0398
1.03345
1.0421
1.03464
1.0519
1.03742
1.04982
1.03431
1.03694
1.01887
1.01765
0.996765
1.00773
0.980687
1.02042
0.859426
1.07003
1.03993
0.971782
1.01846
1.01469
1.02683
1.02399
1.02374
1.03041
1.03193
1.03853
1.02633
1.0385
1.02927
1.03482
1.03384
1.03056
1.03313
1.03193
1.02839
1.03504
1.03328
1.02998
1.03854
1.03226
1.0355
1.03705
1.03015
1.04071
1.02974
1.04127
1.02562
1.03359
1.02775
1.03393
1.02774
1.03294
1.03404
1.03448
1.03312
1.03413
1.03687
1.04667
1.03882
1.03811
1.04206
1.04571
1.04184
1.04342
1.03533
1.04341
1.03874
1.03676
1.03976
1.03941
1.03427
1.01832
1.01726
0.99636
1.00709
0.98037
1.02054
0.878925
1.00348
1.07012
0.992502
1.00446
1.03469
1.01693
1.02635
1.01898
1.02088
1.02515
1.02306
1.02525
1.02164
1.03878
1.02111
1.04757
1.02024
1.04664
1.02033
1.03684
1.02575
1.03296
1.01393
1.03308
1.01403
1.03418
1.01882
1.03733
1.02827
1.04179
1.02919
1.03308
1.02764
1.03735
1.02509
1.03428
1.03766
1.04025
1.0375
1.04734
1.03221
1.04696
1.02591
1.03775
1.03984
1.03511
1.04077
1.03854
1.03925
1.03633
1.04404
1.03483
1.05055
1.03623
1.04845
1.03383
1.03631
1.01646
1.01747
0.994849
1.00641
0.98117
1.02036
0.862391
1.06866
1.05254
0.98367
1.02197
1.01143
1.0195
1.0231
1.01884
1.03107
1.0295
1.04231
1.01508
1.03831
1.01752
1.04116
1.03082
1.03506
1.03319
1.0359
1.0357
1.03107
1.02804
1.03067
1.03815
1.03118
1.03665
1.03623
1.02772
1.04101
1.03035
1.04242
1.03037
1.0379
1.02508
1.03261
1.0249
1.03443
1.02996
1.03207
1.03516
1.03615
1.03144
1.03723
1.03854
1.04595
1.03832
1.04259
1.03871
1.04874
1.03942
1.04459
1.03674
1.0464
1.03904
1.03826
1.03871
1.03801
1.03068
1.01455
1.01838
0.991949
1.00551
0.97993
1.02038
0.882097
1.00175
1.06327
0.990685
1.00003
1.03293
1.01718
1.02942
1.02049
1.02589
1.02951
1.02027
1.03355
1.02587
1.03633
1.01851
1.03894
1.02374
1.04717
1.01826
1.04268
1.02315
1.04007
1.02355
1.02666
1.01784
1.02787
1.0152
1.03773
1.02382
1.03497
1.02746
1.04013
1.03004
1.03752
1.02698
1.03374
1.02265
1.03646
1.033
1.03827
1.03519
1.04201
1.03232
1.04459
1.02683
1.03612
1.03821
1.03573
1.03422
1.04118
1.03934
1.03798
1.04549
1.03547
1.05041
1.03564
1.04971
1.03323
1.03521
1.01307
1.01764
0.994578
1.00705
0.981431
1.02008
0.862337
1.07576
1.0624
0.980793
1.02045
1.01323
1.01785
1.02178
1.0133
1.03144
1.02795
1.04695
1.01036
1.03662
1.01563
1.04076
1.0208
1.03722
1.03037
1.03469
1.03664
1.03582
1.0346
1.03291
1.03148
1.0369
1.03186
1.03848
1.03292
1.03673
1.02941
1.04285
1.03269
1.03937
1.03072
1.03585
1.02488
1.03436
1.02734
1.03261
1.03222
1.03286
1.0341
1.04069
1.03166
1.03681
1.0379
1.04542
1.03873
1.04084
1.0476
1.048
1.03795
1.04811
1.03597
1.04671
1.03957
1.04108
1.03775
1.03685
1.03026
1.01195
1.01622
0.990837
1.00748
0.979419
1.01982
0.882336
0.999131
1.05606
0.991952
1.00239
1.03543
1.01992
1.02963
1.02179
1.03191
1.03181
1.02221
1.03964
1.01808
1.03355
1.01642
1.03468
1.0211
1.03873
1.0241
1.05001
1.01666
1.03987
1.02345
1.03837
1.02098
1.03076
1.01887
1.03374
1.02139
1.03337
1.0227
1.03478
1.0318
1.03835
1.02991
1.03716
1.02651
1.0375
1.02873
1.03739
1.02827
1.03994
1.03412
1.0383
1.03248
1.04089
1.02657
1.034
1.03989
1.03343
1.03059
1.04069
1.03963
1.04077
1.0443
1.0369
1.04972
1.03443
1.04678
1.03264
1.03361
1.01133
1.01326
0.991525
1.00565
0.980268
1.01966
0.863932
1.08359
1.064
0.973099
1.01564
1.01099
1.01327
1.01708
1.00771
1.0284
1.02703
1.04688
1.01513
1.04341
1.018
1.04178
1.01993
1.03799
1.02305
1.03756
1.03152
1.03491
1.03918
1.03955
1.03572
1.03182
1.02921
1.03387
1.02624
1.03514
1.03283
1.04021
1.02931
1.04245
1.0325
1.04232
1.03106
1.03841
1.02147
1.03337
1.02461
1.03651
1.03328
1.03424
1.03359
1.03514
1.02976
1.03962
1.04016
1.04464
1.03889
1.04512
1.04514
1.04778
1.0384
1.04699
1.0355
1.04588
1.04194
1.04507
1.03896
1.03642
1.02921
1.00993
1.01352
0.989622
1.00928
0.981014
1.01979
0.883237
1.00681
1.0541
1.0054
1.00828
1.03881
1.02038
1.02991
1.02233
1.0359
1.03432
1.0256
1.03777
1.02628
1.03736
1.02112
1.03524
1.01678
1.03252
1.02181
1.03987
1.02087
1.04708
1.01787
1.03979
1.02296
1.04213
1.02112
1.03138
1.0234
1.03381
1.02
1.03303
1.02875
1.03372
1.03307
1.03677
1.02791
1.03946
1.02891
1.03521
1.02757
1.04167
1.02974
1.0422
1.03577
1.04335
1.03255
1.03965
1.02772
1.03602
1.03892
1.03539
1.03082
1.04052
1.04034
1.0405
1.04253
1.03805
1.04246
1.03166
1.04026
1.03216
1.03196
1.00844
1.01309
0.988055
1.00867
0.979135
1.01987
0.866795
1.08222
1.06158
0.975417
1.01373
1.01116
1.00783
1.01249
1.00306
1.02498
1.0252
1.04723
1.01395
1.03964
1.0183
1.03701
1.02211
1.03652
1.01846
1.03493
1.0209
1.039
1.02975
1.03446
1.0373
1.03986
1.0332
1.03358
1.02697
1.03455
1.02858
1.03433
1.02637
1.03867
1.02714
1.04302
1.03137
1.03952
1.02946
1.03867
1.02526
1.03326
1.02785
1.0351
1.03485
1.03398
1.02915
1.03942
1.03029
1.04544
1.04154
1.04689
1.03879
1.05057
1.04432
1.04994
1.04168
1.04513
1.03504
1.04646
1.0476
1.04104
1.03899
1.0353
1.028
1.00676
1.0132
0.989789
1.01228
0.980641
1.02016
0.88555
1.01585
1.05009
1.00757
1.01134
1.03976
1.02157
1.02993
1.02197
1.03832
1.03442
1.02728
1.03883
1.03141
1.03286
1.03004
1.03377
1.02497
1.03473
1.02223
1.03246
1.01947
1.03876
1.02179
1.0457
1.02048
1.04006
1.02212
1.04202
1.02032
1.03213
1.02204
1.03856
1.02342
1.03595
1.02926
1.03545
1.03123
1.03898
1.02851
1.03485
1.02523
1.03628
1.02869
1.04246
1.03099
1.03799
1.03723
1.04189
1.03046
1.04001
1.02799
1.03504
1.03898
1.03467
1.03015
1.0404
1.03968
1.03972
1.0414
1.03925
1.04714
1.03208
1.03815
1.03042
1.03002
1.0077
1.01244
0.98375
1.00849
0.980319
1.02011
0.868695
1.08002
1.05231
0.985475
1.01887
1.01283
1.00537
1.00971
1.00201
1.02421
1.02628
1.04301
1.01779
1.03553
1.01984
1.03363
1.02053
1.03243
1.01963
1.03224
1.01907
1.03638
1.01933
1.03838
1.03091
1.03492
1.03319
1.04135
1.0331
1.03313
1.02349
1.03524
1.02679
1.03393
1.02956
1.03637
1.02516
1.04382
1.03104
1.04113
1.03023
1.04152
1.02492
1.03454
1.02853
1.03746
1.03516
1.03445
1.02967
1.03918
1.03246
1.04429
1.04203
1.04792
1.03669
1.0509
1.04615
1.05111
1.04257
1.04521
1.03398
1.04668
1.04101
1.04387
1.03825
1.03327
1.02635
1.00719
1.01032
0.986407
1.00979
0.980383
1.01987
0.881977
1.01844
1.0535
1.00869
1.01154
1.03828
1.02055
1.02893
1.02216
1.03981
1.03195
1.02765
1.03015
1.03643
1.03269
1.03196
1.03254
1.02787
1.03238
1.02396
1.03306
1.01959
1.03272
1.01746
1.03836
1.02485
1.03876
1.02513
1.03867
1.02561
1.03602
1.02191
1.03186
1.02349
1.03827
1.02315
1.03716
1.03074
1.0393
1.03302
1.03642
1.02473
1.03701
1.02639
1.03687
1.02817
1.04167
1.03391
1.03972
1.03429
1.04404
1.03115
1.04194
1.02729
1.03415
1.04022
1.03366
1.03219
1.0403
1.03965
1.0404
1.04187
1.03885
1.04555
1.03271
1.03714
1.02868
1.02688
1.00876
1.01162
0.984106
1.00962
0.979228
1.01862
0.868803
1.08023
1.04938
0.986641
1.01676
1.01187
1.00109
1.00955
0.999793
1.02324
1.02417
1.03646
1.01663
1.03476
1.01409
1.03269
1.02163
1.03523
1.02496
1.03147
1.02197
1.03129
1.01836
1.03833
1.02129
1.03818
1.03143
1.03808
1.02955
1.03984
1.0314
1.0353
1.02469
1.03512
1.02492
1.03537
1.02859
1.0368
1.02388
1.04338
1.03188
1.04092
1.03065
1.03843
1.02683
1.03697
1.03083
1.03814
1.03487
1.03676
1.02985
1.04111
1.03194
1.04711
1.04249
1.04774
1.03887
1.05274
1.04531
1.05173
1.04213
1.04534
1.03375
1.04655
1.04298
1.03991
1.03418
1.02927
1.02535
1.00778
1.01231
0.98695
1.01191
0.979524
1.01396
0.861724
1.02378
1.05337
1.00693
1.01486
1.03699
1.02227
1.03048
1.02501
1.0413
1.03111
1.02628
1.02894
1.03231
1.0292
1.02411
1.03345
1.02944
1.02992
1.02806
1.03086
1.02403
1.03315
1.01704
1.0317
1.01773
1.0349
1.02855
1.03393
1.02564
1.0382
1.02851
1.03409
1.01951
1.03291
1.02262
1.03613
1.02416
1.03407
1.0311
1.03825
1.03212
1.0401
1.0257
1.03861
1.02543
1.03888
1.02931
1.04096
1.03548
1.04142
1.03376
1.04411
1.03101
1.0433
1.03046
1.03299
1.03798
1.03462
1.03288
1.04192
1.04228
1.04113
1.04136
1.03745
1.04257
1.0333
1.03673
1.02677
1.02423
1.00684
1.01297
0.983906
1.0118
0.980082
1.00684
0.853158
1.0783
1.04763
0.991522
1.0154
1.00735
0.997672
1.00664
0.995854
1.02395
1.02063
1.03146
1.01092
1.03164
1.00642
1.02991
1.01844
1.03387
1.02018
1.03307
1.02433
1.0323
1.02166
1.03237
1.02054
1.03723
1.02563
1.03543
1.0305
1.03695
1.03042
1.03778
1.03087
1.03495
1.02333
1.03646
1.0229
1.03248
1.03006
1.0355
1.02463
1.04293
1.03086
1.04039
1.02866
1.03779
1.02782
1.0369
1.03161
1.03979
1.03644
1.03785
1.02974
1.03869
1.0333
1.03881
1.04284
1.04646
1.03734
1.05397
1.04375
1.05212
1.04047
1.0462
1.03482
1.0472
1.04111
1.03837
1.03259
1.02803
1.02238
1.00568
1.01313
0.984389
1.00971
0.976162
1.02065
0.867038
1.03111
1.0507
1.00751
1.0182
1.03794
1.02433
1.03126
1.02639
1.04216
1.02901
1.0229
1.02734
1.0177
1.02566
1.02735
1.02524
1.02702
1.03472
1.0284
1.03257
1.02822
1.03058
1.02407
1.03123
1.0171
1.0346
1.01982
1.03467
1.02953
1.03755
1.02887
1.03666
1.02962
1.03549
1.01868
1.03553
1.02608
1.0348
1.02528
1.038
1.02866
1.03836
1.03117
1.04162
1.02767
1.03739
1.02487
1.03674
1.02889
1.04273
1.03453
1.0423
1.03543
1.04605
1.03451
1.05037
1.03177
1.03294
1.03445
1.03628
1.0333
1.04111
1.03962
1.04092
1.03908
1.03717
1.04415
1.03348
1.03439
1.02413
1.02278
1.00474
1.015
0.985629
1.00752
0.972684
1.01788
0.858708
1.07656
1.04534
0.994953
1.01218
1.00253
0.998126
1.00577
0.994659
1.02313
1.01707
1.02835
1.00685
1.02512
1.01096
1.03393
1.01187
1.03172
1.01297
1.03415
1.02258
1.03298
1.02415
1.03073
1.0232
1.03097
1.01913
1.03766
1.02593
1.0353
1.02871
1.03732
1.02921
1.03807
1.02814
1.03748
1.02151
1.03722
1.0248
1.03346
1.02795
1.03389
1.02911
1.04317
1.03334
1.03914
1.02527
1.03861
1.02939
1.03568
1.03305
1.03775
1.03728
1.03841
1.03098
1.04009
1.03045
1.04308
1.04591
1.04723
1.03851
1.05251
1.0442
1.05477
1.04011
1.04637
1.03437
1.04685
1.03888
1.0394
1.03248
1.02639
1.01918
1.0016
1.01451
0.987723
1.00908
0.972159
1.01581
0.871494
1.03503
1.05262
1.01445
1.02067
1.04112
1.02588
1.02995
1.02697
1.04417
1.02636
1.02105
1.02812
1.02104
1.02299
1.00929
1.02559
1.0191
1.02916
1.02727
1.03228
1.02735
1.03251
1.02842
1.02951
1.02506
1.03147
1.01625
1.03377
1.01854
1.03546
1.03018
1.03649
1.02855
1.03861
1.02782
1.03949
1.02093
1.03442
1.02327
1.03692
1.02617
1.03595
1.03117
1.03837
1.03148
1.04031
1.02814
1.03823
1.02748
1.03652
1.03086
1.04194
1.03584
1.04283
1.03653
1.04607
1.03509
1.04787
1.0322
1.03427
1.03339
1.03788
1.03143
1.04134
1.03819
1.03978
1.04096
1.03812
1.04689
1.0353
1.03356
1.02184
1.02152
1.00278
1.01446
0.987315
1.00598
0.967968
1.01339
0.860376
1.0762
1.0433
0.996292
1.01322
0.998655
0.99873
1.00658
0.993508
1.02218
1.0131
1.03187
1.00652
1.01715
0.998606
1.0264
1.00668
1.03229
1.01261
1.03238
1.02135
1.03232
1.02621
1.03389
1.02571
1.02913
1.02368
1.02929
1.0199
1.03839
1.02597
1.03576
1.02963
1.03656
1.03197
1.03732
1.02934
1.03604
1.02226
1.03707
1.02533
1.03249
1.02851
1.03478
1.02757
1.04249
1.03649
1.03873
1.02574
1.0395
1.02909
1.03555
1.03376
1.03658
1.03581
1.03955
1.03418
1.04006
1.03505
1.04291
1.04586
1.04789
1.0407
1.05341
1.04467
1.05711
1.03967
1.04625
1.03548
1.04729
1.03829
1.0381
1.03009
1.02474
1.01866
1.00205
1.01297
0.987837
1.00739
0.96698
1.01118
0.868248
1.04587
1.05747
1.0185
1.01917
1.04097
1.02509
1.02871
1.02784
1.04443
1.02489
1.02571
1.0233
1.01814
1.02894
1.01816
1.02799
1.01085
1.02454
1.0193
1.02713
1.02593
1.03091
1.02549
1.0326
1.02572
1.03023
1.02443
1.03288
1.01671
1.03281
1.02005
1.03607
1.03019
1.03859
1.03074
1.0377
1.02844
1.03885
1.01945
1.03526
1.0253
1.03682
1.02734
1.03539
1.03104
1.03834
1.03434
1.03945
1.02929
1.0372
1.02801
1.03527
1.03141
1.04204
1.03556
1.04183
1.03663
1.04457
1.03496
1.04785
1.03366
1.03391
1.03387
1.03784
1.03046
1.04155
1.03907
1.04039
1.04303
1.0373
1.04527
1.03661
1.03434
1.02003
1.02186
1.00235
1.01134
0.986566
1.00692
0.967584
1.00995
0.859379
1.07096
1.04268
1.00326
1.01769
0.999427
1.00001
1.00663
0.994113
1.02306
1.00953
1.03393
1.00383
1.02138
1.00277
1.02119
0.997151
1.02558
1.00739
1.02983
1.01197
1.02813
1.02312
1.02933
1.02446
1.03571
1.02406
1.02839
1.02199
1.03314
1.01847
1.03571
1.02685
1.03464
1.02856
1.03561
1.03288
1.03726
1.02861
1.03827
1.02108
1.03709
1.02656
1.03337
1.02848
1.03651
1.02847
1.03941
1.03453
1.03876
1.02773
1.0401
1.02749
1.03609
1.03181
1.03592
1.03675
1.04012
1.03475
1.04354
1.03616
1.04417
1.04477
1.05006
1.04263
1.05591
1.04456
1.05547
1.03943
1.04521
1.03818
1.04762
1.03905
1.03672
1.02989
1.02138
1.01833
1.00043
1.0112
0.985516
1.00744
0.96508
1.00905
0.868963
1.04661
1.06153
1.02084
1.01594
1.03815
1.02385
1.02689
1.02935
1.04401
1.02517
1.02821
1.02691
1.02932
1.0248
1.00799
1.02889
1.01468
1.02702
1.01675
1.02323
1.02525
1.02808
1.02638
1.02962
1.02285
1.03247
1.02842
1.02917
1.02237
1.03418
1.01502
1.03249
1.02129
1.03599
1.03198
1.03738
1.03106
1.0382
1.02754
1.03819
1.01983
1.03338
1.02578
1.0375
1.02602
1.03539
1.03067
1.03751
1.03516
1.03887
1.02818
1.03872
1.02746
1.03704
1.03051
1.04264
1.03581
1.03894
1.03538
1.04254
1.03499
1.04756
1.03378
1.03569
1.03499
1.03668
1.03385
1.04473
1.03713
1.04046
1.04291
1.03758
1.04416
1.03735
1.03336
1.01986
1.01883
1.00134
1.01018
0.982223
1.00438
0.963379
1.00879
0.864332
1.07129
1.04409
1.0079
1.02021
1.00166
1.00142
1.00767
0.995886
1.02289
1.00696
1.03687
1.00858
1.02166
1.01146
1.02501
1.00267
1.02552
0.996035
1.02391
1.00785
1.03099
1.01783
1.02564
1.02062
1.03062
1.02244
1.03314
1.02495
1.03134
1.02223
1.0323
1.02116
1.03333
1.02652
1.03495
1.02739
1.03518
1.03211
1.03703
1.02769
1.0395
1.02092
1.03739
1.02841
1.0315
1.02716
1.03721
1.03041
1.03884
1.03473
1.03844
1.02954
1.03997
1.02969
1.03508
1.03274
1.03505
1.03636
1.04021
1.03557
1.04395
1.03619
1.04189
1.04187
1.05174
1.04537
1.0588
1.04342
1.05202
1.03986
1.04483
1.03907
1.04671
1.03961