/*--------------------------------*- C++ -*----------------------------------*\
| =========                 |                                                 |
| \\      /  F ield         | OpenFOAM: The Open Source CFD Toolbox           |
|  \\    /   O peration     | Version:  2206                                  |
|   \\  /    A nd           | Website:  www.openfoam.com                      |
|    \\/     M anipulation  |                                                 |
\*---------------------------------------------------------------------------*/
FoamFile
{
    version     2.0;
    format      ascii;
    arch        "LSB;label=32;scalar=64";
    class       volScalarField;
    location    "160";
    object      pMean;
}
// * * * * * * * * * * * * * * * * * * * * * * * * * * * * * * * * * * * * * //

dimensions      [1 -1 -2 0 0 0 0];

internalField   nonuniform List<scalar> 
93840
(
2.03124
0.703028
1.84327
1.38256
0.749811
1.65245
0.741892
1.26576
0.791323
1.47633
1.16587
0.873281
1.24876
0.884067
1.29032
0.991878
1.20329
0.868947
1.19842
0.942929
1.10552
1.11124
0.885921
1.21392
0.932119
1.13647
1.03643
1.00849
0.985241
1.18314
0.890396
1.15694
0.978346
1.06818
1.07863
0.88655
1.10778
0.892839
1.18629
0.973085
1.11088
1.05653
1.05857
1.0733
0.89662
0.977468
1.13723
0.918078
1.11919
1.005
1.0595
1.06212
1.03835
1.05742
0.790415
1.10401
0.950892
1.16211
1.00864
1.08961
1.0733
1.05017
1.0573
1.0203
1.0727
0.865983
0.975186
1.11852
0.945618
1.07815
1.01951
1.05099
1.05653
1.03558
1.03598
1.00106
1.06517
0.807882
1.09985
0.946109
1.14282
1.03586
1.07235
1.0818
1.04936
1.05596
1.0273
1.04736
0.988823
1.06029
0.850028
0.975997
1.11719
0.960556
1.05864
1.02834
1.04563
1.05193
1.03316
1.03416
1.01794
1.03014
1.00774
1.05495
0.791704
1.09654
0.946261
1.12473
1.04572
1.05919
1.08501
1.0509
1.05454
1.03168
1.03986
1.00639
1.03066
0.985956
1.04828
0.848338
0.976365
1.11368
0.976313
1.04256
1.03626
1.04234
1.04931
1.03268
1.0328
1.0244
1.02729
1.01419
1.02609
0.995885
1.04374
0.786184
1.09168
0.950532
1.10797
1.05881
1.04865
1.08325
1.05224
1.04999
1.03702
1.03848
1.01908
1.02861
0.99802
1.02216
0.986082
1.03918
0.847473
0.978342
1.10845
0.986834
1.02828
1.03983
1.03969
1.04774
1.03539
1.03345
1.02549
1.02393
1.0194
1.02263
1.0067
1.02002
0.989467
1.03547
0.785455
1.08502
0.956096
1.09352
1.06746
1.04132
1.07961
1.05449
1.0481
1.04003
1.03844
1.0301
1.03322
1.01085
1.02281
0.996379
1.01663
0.983439
1.03223
0.851262
0.978007
1.10158
0.999398
1.01755
1.04243
1.03766
1.04648
1.03834
1.03468
1.02965
1.02633
1.02135
1.01892
1.01362
1.0184
1.00035
1.01499
0.983839
1.02946
0.791128
1.08174
0.962359
1.07524
1.07102
1.0358
1.07488
1.05568
1.04756
1.0437
1.03874
1.03518
1.03274
1.0248
1.0286
1.00755
1.01803
0.993821
1.01212
0.980879
1.02755
0.855398
0.97572
1.09377
1.00993
1.0103
1.04368
1.03664
1.0458
1.04135
1.03638
1.03328
1.02907
1.02545
1.02268
1.01601
1.01684
1.00983
1.01537
0.994282
1.01181
0.97939
1.02571
0.801854
1.08231
0.967766
1.05947
1.07287
1.03224
1.0695
1.05527
1.04705
1.04695
1.03964
1.03984
1.03343
1.03125
1.02765
1.02179
1.01748
1.00501
1.01412
0.991784
1.0093
0.978876
1.02559
0.856037
0.976465
1.08621
1.02021
1.00527
1.04325
1.03588
1.04539
1.04444
1.03764
1.03691
1.03023
1.0301
1.02597
1.02193
1.02061
1.01306
1.01948
1.00458
1.01345
0.98964
1.00913
0.975984
1.02349
0.814534
1.08233
0.973308
1.0447
1.07276
1.02995
1.06446
1.05327
1.04594
1.04943
1.04001
1.0438
1.0345
1.03667
1.02968
1.02811
1.02407
1.01817
1.01681
1.00263
1.01194
0.989478
1.008
0.978047
1.01752
0.810125
0.979848
1.07886
1.03018
1.00238
1.04218
1.03462
1.0449
1.04674
1.03854
1.04076
1.03428
1.03536
1.02705
1.02727
1.02326
1.01908
1.01952
1.00963
1.01784
1.00028
1.01129
0.985923
1.00677
0.973291
1.00525
0.790914
1.08058
0.979783
1.03026
1.07054
1.02836
1.05992
1.05054
1.04493
1.05096
1.0404
1.04674
1.03469
1.04115
1.03166
1.03354
1.02637
1.02599
1.02189
1.01527
1.01329
1.00034
1.00968
0.98758
1.00653
0.975048
1.04175
0.826473
0.983044
1.07128
1.03774
1.00125
1.04132
1.03266
1.04403
1.04783
1.03922
1.04483
1.03607
1.03922
1.03217
1.03422
1.02366
1.02479
1.02159
1.01673
1.01822
1.00713
1.01655
0.99668
1.0095
0.983199
1.00434
0.96142
1.03375
0.825586
1.07826
0.986395
1.01789
1.06732
1.02701
1.05592
1.048
1.04331
1.05155
1.0396
1.04975
1.03588
1.04511
1.03009
1.03621
1.02949
1.03233
1.024
1.02398
1.01994
1.01238
1.01206
0.998433
1.00819
0.985656
1.00539
0.968232
1.02714
0.847631
0.985211
1.06372
1.04243
1.00155
1.04094
1.0311
1.04228
1.04819
1.03965
1.04888
1.03591
1.04489
1.03382
1.03811
1.03036
1.0294
1.02242
1.02285
1.02037
1.01441
1.01694
1.0055
1.01396
0.994299
1.00784
0.98163
1.00415
0.969233
1.02237
0.837868
1.07604
0.992703
1.00771
1.06353
1.02555
1.05234
1.04584
1.04101
1.05136
1.03792
1.05131
1.03601
1.04893
1.03267
1.04403
1.0293
1.03915
1.0265
1.03124
1.02199
1.02228
1.01634
1.01019
1.01095
0.996609
1.00665
0.984089
1.00458
0.972651
1.01925
0.855438
0.987304
1.05687
1.04526
1.00283
1.04078
1.02958
1.03984
1.0475
1.03941
1.05168
1.03621
1.05012
1.03368
1.04444
1.03202
1.03677
1.02724
1.02893
1.02148
1.02185
1.01953
1.01283
1.01718
1.00451
1.01163
0.992791
1.00636
0.980375
1.00343
0.971328
1.01663
0.844994
1.07391
0.998797
0.999391
1.0595
1.02447
1.0492
1.04474
1.03917
1.05174
1.03707
1.05231
1.03545
1.05151
1.03378
1.04839
1.03061
1.04351
1.02786
1.0378
1.02443
1.02996
1.02019
1.02133
1.01392
1.00869
1.00945
0.995281
1.00582
0.982905
1.0037
0.973452
1.01459
0.858544
0.989932
1.04948
1.04635
1.00423
1.04059
1.02845
1.03692
1.04652
1.03832
1.0527
1.03589
1.05294
1.03447
1.04946
1.03304
1.0442
1.03054
1.0367
1.02503
1.02929
1.02068
1.02127
1.01825
1.01161
1.01586
1.00415
1.01001
0.991471
1.00504
0.979559
1.00253
0.971759
1.01291
0.848876
1.07158
1.00422
0.993082
1.05623
1.02417
1.04653
1.04373
1.03784
1.05262
1.03538
1.05329
1.03419
1.05275
1.03408
1.05075
1.03255
1.04694
1.02896
1.04249
1.02675
1.03676
1.02283
1.02896
1.01889
1.02067
1.01259
1.00753
1.00867
0.994214
1.0047
0.982273
1.003
0.973022
1.01264
0.861156
0.993258
1.04207
1.0462
1.00571
1.04016
1.02754
1.03412
1.04533
1.03654
1.05231
1.03497
1.05389
1.03466
1.05287
1.03443
1.04932
1.03245
1.04325
1.02888
1.03639
1.02348
1.02966
1.01954
1.02108
1.0174
1.01089
1.01439
1.00255
1.00814
0.99016
1.00379
0.978986
1.00155
0.971356
1.01184
0.85212
1.06857
1.00903
0.988397
1.05371
1.02404
1.04374
1.04254
1.03675
1.05298
1.03368
1.05481
1.03337
1.05387
1.03306
1.05282
1.03319
1.05031
1.03143
1.04582
1.02806
1.04156
1.02473
1.03569
1.02181
1.0283
1.01732
1.02027
1.0104
1.00705
1.00754
0.993597
1.00364
0.98197
1.00196
0.972766
1.01146
0.863738
0.996508
1.03522
1.0457
1.00716
1.03928
1.02697
1.03132
1.04471
1.0337
1.05193
1.03369
1.05391
1.0339
1.05457
1.0344
1.05249
1.03406
1.04885
1.03165
1.04316
1.0282
1.03652
1.02331
1.02977
1.01898
1.02096
1.01632
1.01048
1.01519
1.00211
1.00692
0.989608
1.00271
0.97869
1.00022
0.971265
1.01099
0.855401
1.0652
1.01274
0.985169
1.05144
1.02377
1.04041
1.04115
1.03559
1.05345
1.03266
1.0558
1.03278
1.05531
1.03263
1.05399
1.03267
1.0524
1.03234
1.04992
1.03097
1.0455
1.02748
1.04159
1.02345
1.03447
1.02037
1.02779
1.01638
1.01945
1.00937
1.00634
1.00655
0.992682
1.00232
0.981949
1.00043
0.972875
1.01058
0.865616
0.999137
1.02918
1.04389
1.00849
1.03851
1.02653
1.02873
1.04387
1.03152
1.05121
1.03286
1.05422
1.0328
1.0541
1.03339
1.05438
1.03412
1.05216
1.03363
1.04795
1.03076
1.04275
1.02682
1.03593
1.02303
1.02971
1.01819
1.0211
1.01538
1.0105
1.01368
1.00174
1.00561
0.989357
1.00193
0.978962
0.999288
0.971301
1.01016
0.857948
1.06198
1.0157
0.983377
1.04925
1.02319
1.03704
1.03947
1.03445
1.05314
1.03181
1.05598
1.02988
1.05594
1.03274
1.05531
1.03253
1.05389
1.03233
1.05181
1.03182
1.04954
1.03007
1.04501
1.02662
1.04113
1.02296
1.03404
1.01993
1.02746
1.01527
1.01885
1.00878
1.00554
1.00555
0.992052
1.00118
0.981984
0.998695
0.973057
1.01012
0.867875
1.0011
1.02376
1.04254
1.00966
1.03764
1.02598
1.02689
1.04331
1.0295
1.05033
1.03151
1.05241
1.03447
1.05555
1.03198
1.05398
1.03393
1.05387
1.03355
1.05191
1.03303
1.04743
1.02988
1.04267
1.02602
1.036
1.0221
1.02973
1.01748
1.0211
1.01429
1.01047
1.01212
1.00136
1.00453
0.989455
1.00106
0.979461
0.998289
0.971718
1.00894
0.859792
1.05917
1.01844
0.982491
1.04675
1.02247
1.03397
1.03785
1.03306
1.05264
1.03048
1.0552
1.02944
1.05642
1.02777
1.05278
1.03275
1.05508
1.03206
1.0534
1.03204
1.05151
1.03095
1.04863
1.02925
1.04457
1.02629
1.04071
1.02226
1.03372
1.0189
1.02702
1.01417
1.01812
1.00792
1.00488
1.00416
0.991752
0.999966
0.982236
0.997099
0.973567
1.01011
0.872002
1.00304
1.01959
1.04106
1.01013
1.03683
1.02553
1.02563
1.04269
1.02757
1.04976
1.02955
1.05199
1.03264
1.05308
1.03566
1.05361
1.03343
1.05408
1.03393
1.05373
1.03324
1.05142
1.03227
1.04732
1.02816
1.04265
1.02482
1.03606
1.02137
1.02968
1.01691
1.02095
1.01349
1.01022
1.01052
1.00117
1.00351
0.989823
0.999915
0.979976
0.996849
0.972208
1.00854
0.865173
1.05652
1.02058
0.982311
1.04443
1.02194
1.03118
1.03649
1.03153
1.05232
1.02848
1.05438
1.02878
1.05584
1.02929
1.05673
1.02944
1.05602
1.03143
1.05395
1.03194
1.0528
1.0315
1.05092
1.03015
1.0478
1.02952
1.04376
1.02593
1.04012
1.0217
1.03343
1.01766
1.02649
1.01324
1.01755
1.00719
1.00457
1.0027
0.991763
0.998852
0.982711
0.995685
0.974072
1.0069
0.876558
1.0051
1.01651
1.0383
1.00999
1.03592
1.02488
1.0246
1.04217
1.02565
1.04885
1.02724
1.05172
1.02972
1.05246
1.03274
1.05283
1.03451
1.05368
1.03409
1.05396
1.03395
1.05299
1.03295
1.05124
1.03151
1.04683
1.02723
1.04241
1.02376
1.03623
1.0206
1.02957
1.01645
1.02043
1.01265
1.01
1.00887
1.00107
1.00247
0.990074
0.998616
0.980394
0.995814
0.972998
1.00533
0.869263
1.05432
1.02281
0.982991
1.04269
1.02156
1.02881
1.03549
1.02989
1.05204
1.026
1.05399
1.02702
1.05476
1.02897
1.05591
1.02932
1.05694
1.03007
1.05567
1.03148
1.05441
1.03171
1.05263
1.03111
1.05022
1.02986
1.0474
1.02902
1.04368
1.02558
1.03952
1.02113
1.03297
1.01701
1.02568
1.01221
1.017
1.00597
1.00437
1.00126
0.99198
0.997817
0.983125
0.99444
0.974463
1.00379
0.879591
1.00738
1.01404
1.03568
1.00983
1.03486
1.02436
1.02402
1.04139
1.02409
1.04751
1.02777
1.05066
1.02855
1.05329
1.02954
1.05274
1.03298
1.05292
1.0346
1.05342
1.03348
1.0539
1.0338
1.05277
1.03271
1.04968
1.03096
1.04519
1.02712
1.04188
1.02286
1.03603
1.02
1.02918
1.0159
1.02042
1.01189
1.00989
1.00797
1.00096
1.00163
0.990467
0.997311
0.980829
0.994518
0.973416
1.00234
0.871974
1.05218
1.02568
0.983925
1.04128
1.02127
1.02666
1.03464
1.02792
1.05092
1.02452
1.05208
1.02406
1.0526
1.02671
1.05404
1.02966
1.05592
1.02928
1.05714
1.03065
1.05517
1.03246
1.0538
1.03199
1.0522
1.03134
1.04993
1.02952
1.04676
1.0287
1.04315
1.0256
1.03885
1.02069
1.03246
1.0162
1.02539
1.01128
1.01662
1.00497
1.00428
1.0002
0.99228
0.99663
0.983522
0.993013
0.974928
1.00097
0.881816
1.00993
1.01233
1.03267
1.00948
1.03367
1.02406
1.02376
1.04048
1.02292
1.04676
1.02644
1.04971
1.02863
1.05232
1.02855
1.05184
1.03098
1.05275
1.03287
1.05279
1.03411
1.05337
1.03317
1.05334
1.03345
1.0525
1.03206
1.05004
1.03051
1.04532
1.02675
1.04095
1.02243
1.03566
1.01951
1.02879
1.01497
1.0199
1.01115
1.00961
1.00677
1.00107
1.00044
0.990763
0.996056
0.981431
0.993113
0.974086
0.999605
0.874605
1.05033
1.02851
0.98545
1.04012
1.02108
1.02482
1.03389
1.02577
1.04996
1.02262
1.05276
1.02361
1.05279
1.02447
1.05242
1.02798
1.05329
1.02925
1.05593
1.02948
1.05617
1.03148
1.05478
1.03294
1.05309
1.03191
1.05205
1.03136
1.04944
1.02951
1.04639
1.02822
1.04318
1.0254
1.03803
1.02015
1.03187
1.0155
1.02505
1.01038
1.01625
1.00396
1.00405
0.999162
0.992475
0.995445
0.983761
0.991569
0.975544
0.998353
0.884873
1.01254
1.01107
1.02961
1.00896
1.0325
1.02362
1.02345
1.03971
1.02201
1.04589
1.02401
1.04792
1.02728
1.04879
1.02915
1.05199
1.02989
1.05264
1.03094
1.0528
1.03315
1.05275
1.03409
1.05335
1.03318
1.0533
1.03353
1.05156
1.03171
1.04875
1.03038
1.0449
1.02654
1.04046
1.0218
1.03517
1.01908
1.02817
1.01454
1.01911
1.01043
1.00949
1.00552
1.00109
0.999263
0.99096
0.994912
0.981772
0.991632
0.974652
0.997109
0.877925
1.04848
1.03172
0.987865
1.03902
1.02088
1.0231
1.03309
1.02363
1.04897
1.0206
1.05234
1.02229
1.05173
1.02328
1.05211
1.02522
1.0535
1.02812
1.05378
1.02947
1.05567
1.03018
1.05567
1.03172
1.05444
1.03301
1.0529
1.03178
1.05171
1.03143
1.04914
1.02904
1.04596
1.02778
1.04268
1.02533
1.03738
1.01965
1.03145
1.01456
1.02479
1.00945
1.01579
1.00304
1.00378
0.998021
0.992646
0.994174
0.983911
0.990376
0.975954
0.995878
0.888008
1.01532
1.00965
1.02702
1.00859
1.03128
1.02336
1.02315
1.03907
1.02158
1.04529
1.02337
1.04735
1.02529
1.0486
1.02827
1.05049
1.02948
1.05249
1.03003
1.05288
1.03055
1.05262
1.03333
1.05193
1.03435
1.05303
1.03316
1.05275
1.03358
1.05059
1.03201
1.04795
1.0301
1.04437
1.02616
1.03976
1.02121
1.0346
1.01841
1.02771
1.01382
1.01889
1.00972
1.00938
1.0044
1.00104
0.998297
0.991323
0.993771
0.98208
0.990509
0.975148
0.994802
0.88064
1.04637
1.03361
0.989757
1.03778
1.02052
1.02138
1.0323
1.02148
1.04806
1.01905
1.05102
1.01902
1.04906
1.02296
1.05217
1.02367
1.05163
1.02595
1.05244
1.02926
1.05363
1.0303
1.05519
1.03092
1.0547
1.03178
1.05413
1.03299
1.05292
1.0317
1.0509
1.03131
1.04863
1.02876
1.04561
1.02722
1.04115
1.02528
1.03688
1.01924
1.03087
1.01459
1.02422
1.00861
1.01536
1.00205
1.00351
0.996892
0.992856
0.993045
0.98406
0.989384
0.976215
0.993764
0.890732
1.01819
1.00973
1.02484
1.00822
1.03027
1.02341
1.02283
1.03842
1.02144
1.04535
1.02267
1.04583
1.02532
1.0485
1.02649
1.04899
1.02869
1.05075
1.03004
1.05097
1.03014
1.05159
1.03184
1.05239
1.03355
1.05242
1.03344
1.05251
1.03341
1.05197
1.03388
1.04956
1.03195
1.0474
1.02948
1.04379
1.02596
1.03889
1.02104
1.03416
1.01798
1.02713
1.0134
1.01862
1.00888
1.00928
1.00303
1.001
0.997042
0.991484
0.992517
0.982371
0.989496
0.975345
0.992586
0.883873
1.04414
1.03553
0.991595
1.03646
1.02026
1.01996
1.03151
1.01945
1.04732
1.01738
1.04997
1.01764
1.04996
1.02138
1.04948
1.02213
1.04937
1.02558
1.05071
1.02725
1.05181
1.03003
1.05256
1.03064
1.05441
1.03181
1.05428
1.03296
1.05383
1.03296
1.05228
1.03162
1.05058
1.03118
1.04799
1.02858
1.04514
1.02733
1.04124
1.02453
1.03626
1.01864
1.03041
1.01402
1.02365
1.00781
1.01482
1.00105
1.00334
0.995921
0.992878
0.99191
0.984148
0.988473
0.976336
0.991558
0.894114
1.02062
1.00942
1.02328
1.00794
1.02919
1.0233
1.02244
1.03792
1.02132
1.04523
1.02201
1.04741
1.02343
1.04634
1.02554
1.04811
1.02781
1.05002
1.02925
1.05044
1.03071
1.04922
1.03134
1.05218
1.03233
1.05126
1.0341
1.05227
1.03383
1.05249
1.0334
1.05171
1.03333
1.04934
1.03147
1.0471
1.02925
1.04249
1.0256
1.03835
1.02095
1.03353
1.01739
1.02651
1.01294
1.01826
1.0082
1.00926
1.00265
1.00082
0.995854
0.991461
0.99134
0.982596
0.988417
0.975442
0.990353
0.88754
1.04225
1.03685
0.99316
1.03508
1.02002
1.01878
1.03092
1.01771
1.04661
1.0159
1.04961
1.01752
1.05024
1.01948
1.04845
1.02203
1.04922
1.02419
1.04895
1.02627
1.05071
1.02811
1.05217
1.03052
1.05239
1.03137
1.054
1.03188
1.05401
1.03311
1.05339
1.03296
1.05215
1.03229
1.05009
1.03095
1.04758
1.02806
1.04441
1.02684
1.04046
1.02367
1.03583
1.01821
1.02987
1.01338
1.02313
1.00702
1.01413
1.00028
1.00291
0.995041
0.992917
0.991011
0.984134
0.987375
0.976159
0.989287
0.898027
1.02273
1.00984
1.02144
1.00742
1.02811
1.02304
1.02179
1.03746
1.0211
1.04446
1.0219
1.04564
1.02221
1.045
1.02547
1.04692
1.02713
1.04828
1.02796
1.04998
1.02943
1.05022
1.03099
1.04959
1.03137
1.05184
1.03299
1.05151
1.03423
1.05251
1.03348
1.05206
1.03357
1.05124
1.03297
1.04895
1.03101
1.04657
1.02908
1.04262
1.0253
1.03803
1.02077
1.03301
1.0168
1.02573
1.01251
1.0178
1.00761
1.00927
1.00176
1.00021
0.994875
0.991231
0.990476
0.982752
0.98733
0.975417
0.988123
0.891466
1.04067
1.03765
0.996217
1.03371
1.0199
1.01776
1.03061
1.01622
1.04583
1.01472
1.04968
1.01675
1.04921
1.0186
1.04705
1.02082
1.04751
1.02232
1.04837
1.02516
1.04917
1.02682
1.05067
1.02889
1.05193
1.031
1.05205
1.03175
1.05274
1.03196
1.05297
1.03354
1.05342
1.03285
1.05185
1.03227
1.0495
1.03064
1.04704
1.02788
1.04379
1.02636
1.0397
1.02277
1.03518
1.01771
1.02943
1.01267
1.02253
1.00618
1.01326
0.999454
1.00242
0.994235
0.992707
0.989956
0.984119
0.986302
0.976049
0.986903
0.901653
1.02472
1.01089
1.02046
1.00657
1.02692
1.0227
1.02104
1.03696
1.02108
1.04374
1.02091
1.04469
1.02273
1.04571
1.02475
1.0469
1.02615
1.04726
1.02775
1.04781
1.0283
1.04977
1.02955
1.04991
1.03094
1.05
1.03156
1.05162
1.03306
1.05149
1.03431
1.05315
1.03352
1.05182
1.03356
1.05081
1.03254
1.04868
1.03076
1.04593
1.02876
1.04214
1.0248
1.03775
1.02026
1.0324
1.01624
1.02522
1.01186
1.01731
1.00712
1.00918
1.00124
0.999985
0.994014
0.990917
0.989629
0.982859
0.98635
0.975314
0.985381
0.895433
1.03929
1.03815
0.997068
1.03249
1.01997
1.01691
1.03046
1.01494
1.04493
1.01389
1.04804
1.01602
1.04879
1.01809
1.04649
1.02148
1.04628
1.02161
1.04719
1.02321
1.04806
1.02569
1.0488
1.02769
1.05053
1.02949
1.05148
1.03155
1.05197
1.0321
1.05338
1.03247
1.05251
1.03361
1.05308
1.03282
1.05151
1.03223
1.04896
1.03045
1.04629
1.02766
1.04331
1.02574
1.03881
1.02246
1.03443
1.01718
1.02896
1.01201
1.02193
1.00538
1.01254
0.998774
1.00202
0.993401
0.992481
0.989044
0.98402
0.985224
0.975659
0.984381
0.904926
1.02641
1.01218
1.02059
1.00572
1.02566
1.02244
1.02018
1.03626
1.02083
1.04215
1.02178
1.044
1.02368
1.04492
1.02351
1.04587
1.02446
1.04683
1.02656
1.04734
1.0283
1.0477
1.02876
1.04872
1.03036
1.0501
1.03093
1.05004
1.03193
1.05144
1.0334
1.0516
1.03396
1.05306
1.03358
1.05165
1.03342
1.05062
1.03172
1.04843
1.03051
1.04536
1.02843
1.04161
1.02436
1.03752
1.01989
1.03163
1.01562
1.02484
1.01133
1.01687
1.0068
1.00889
1.00035
0.999525
0.993288
0.990619
0.988933
0.9827
0.985286
0.975013
0.98286
0.899125
1.03828
1.03895
0.997441
1.03126
1.02027
1.01619
1.03043
1.01391
1.04407
1.0139
1.04817
1.01567
1.04687
1.01704
1.04529
1.02205
1.04669
1.02263
1.04656
1.02256
1.04709
1.02418
1.04806
1.02647
1.04861
1.02788
1.04941
1.03044
1.05123
1.03183
1.052
1.03213
1.05282
1.03292
1.05244
1.03356
1.05298
1.03279
1.05064
1.03273
1.04857
1.03015
1.04568
1.02733
1.04269
1.0252
1.0383
1.0217
1.03436
1.01647
1.02847
1.01119
1.02125
1.00448
1.01172
0.998301
1.00155
0.992641
0.992204
0.988175
0.983818
0.984223
0.975114
0.981607
0.90849
1.02796
1.01281
1.02102
1.00501
1.02446
1.02214
1.01922
1.03551
1.02059
1.04075
1.02095
1.043
1.02316
1.04143
1.02581
1.04348
1.02403
1.04375
1.02619
1.04649
1.02719
1.04721
1.02848
1.04762
1.02947
1.04919
1.03071
1.04997
1.03113
1.05008
1.03237
1.05131
1.03356
1.05223
1.03372
1.05273
1.03355
1.05146
1.03322
1.05037
1.03146
1.04812
1.03029
1.04482
1.02797
1.04121
1.02387
1.03715
1.01943
1.03105
1.01482
1.02449
1.01074
1.01638
1.00635
1.00853
0.999244
0.999153
0.992428
0.990386
0.988212
0.982616
0.984103
0.974311
0.980066
0.90322
1.03733
1.03959
0.998027
1.03005
1.02077
1.01546
1.0304
1.01306
1.04329
1.01391
1.04775
1.01557
1.04652
1.01892
1.04682
1.01991
1.04545
1.02315
1.04555
1.02318
1.04546
1.02378
1.04636
1.02535
1.04808
1.02701
1.04846
1.02878
1.04936
1.03058
1.05109
1.03182
1.05188
1.03261
1.05242
1.03347
1.05247
1.03371
1.05277
1.03302
1.05045
1.03265
1.04811
1.02983
1.04524
1.02693
1.04227
1.02457
1.03773
1.02102
1.03401
1.01578
1.028
1.01047
1.02049
1.00379
1.01099
0.997917
1.00102
0.991823
0.99195
0.987181
0.983382
0.982942
0.974276
0.978637
0.912978
1.02935
1.01355
1.02135
1.00442
1.02342
1.02169
1.01825
1.03473
1.02038
1.03955
1.02045
1.04186
1.02293
1.04036
1.02569
1.04176
1.02631
1.04267
1.02642
1.04406
1.02701
1.04535
1.02747
1.04736
1.02848
1.04743
1.02998
1.04913
1.03106
1.04967
1.03188
1.05039
1.03271
1.05126
1.03362
1.05218
1.03369
1.0525
1.03352
1.05141
1.03292
1.05005
1.03137
1.04765
1.02999
1.04447
1.02747
1.0408
1.02335
1.03686
1.01871
1.03068
1.01411
1.02416
1.01006
1.01591
1.00582
1.00794
0.998153
0.998819
0.991707
0.990191
0.987459
0.982346
0.98286
0.973681
0.976783
0.907811
1.03628
1.04008
0.998735
1.02894
1.02117
1.01467
1.0304
1.01239
1.04259
1.01405
1.04761
1.01558
1.04666
1.01768
1.04615
1.01926
1.0447
1.02181
1.04486
1.02399
1.04502
1.02469
1.04604
1.02491
1.046
1.026
1.04726
1.02731
1.04847
1.02924
1.04924
1.03063
1.0509
1.03207
1.05164
1.03274
1.05241
1.03352
1.05224
1.03383
1.05239
1.03325
1.05018
1.03241
1.04781
1.02946
1.04481
1.02651
1.04177
1.02385
1.03725
1.02032
1.03355
1.01498
1.02731
1.00975
1.01967
1.00297
1.00991
0.997257
1.00054
0.990922
0.991596
0.986378
0.982935
0.981664
0.974091
0.975639
0.917124
1.03065
1.01441
1.02141
1.00391
1.02249
1.02126
1.0174
1.03395
1.02006
1.03855
1.01991
1.0412
1.02201
1.04143
1.02532
1.04168
1.02641
1.04295
1.02732
1.0429
1.02736
1.0443
1.02731
1.04518
1.02795
1.04747
1.02851
1.04829
1.03047
1.04909
1.03131
1.04982
1.03208
1.05037
1.03301
1.05127
1.0337
1.05194
1.03392
1.05193
1.03384
1.05075
1.03307
1.04974
1.03117
1.04742
1.02965
1.04417
1.02691
1.04046
1.02289
1.03643
1.01801
1.03048
1.01351
1.02376
1.00942
1.01551
1.00518
1.00727
0.997218
0.998432
0.990895
0.989823
0.98668
0.982033
0.981398
0.973768
0.974386
0.911509
1.03537
1.04042
0.999452
1.02792
1.02143
1.01387
1.03035
1.01169
1.04193
1.01419
1.04737
1.01559
1.04708
1.01684
1.04507
1.0183
1.04168
1.02204
1.04121
1.02377
1.04392
1.02452
1.04386
1.02579
1.04552
1.0256
1.04574
1.02685
1.04709
1.02772
1.0484
1.02954
1.04931
1.03097
1.05088
1.0323
1.05162
1.03281
1.05238
1.03362
1.0517
1.03396
1.05145
1.03316
1.04985
1.03217
1.04737
1.02917
1.04443
1.02607
1.04113
1.02326
1.03686
1.01966
1.03299
1.01439
1.02657
1.00898
1.0189
1.00225
1.00922
0.996728
1.00009
0.990002
0.991306
0.985576
0.982396
0.980239
0.974336
0.97411
0.920247
1.03174
1.01543
1.02156
1.00352
1.0216
1.02084
1.01666
1.03318
1.01978
1.03772
1.01951
1.04057
1.02145
1.04175
1.02336
1.04143
1.02623
1.04079
1.02699
1.04146
1.02765
1.04271
1.02819
1.04381
1.0278
1.045
1.02842
1.04667
1.0293
1.04803
1.03057
1.04914
1.03167
1.04988
1.03214
1.05038
1.03319
1.05135
1.03381
1.05184
1.03419
1.05218
1.03414
1.05106
1.03287
1.04934
1.03107
1.04699
1.02929
1.04382
1.02628
1.04016
1.02237
1.03614
1.01743
1.02998
1.01288
1.0234
1.0087
1.01508
1.00446
1.00659
0.996459
0.998021
0.990073
0.989574
0.985954
0.981666
0.97986
0.973811
0.972919
0.914715
1.03454
1.04079
1.00012
1.02673
1.02159
1.01306
1.03018
1.01095
1.04123
1.01423
1.04695
1.01623
1.04656
1.01544
1.04253
1.0192
1.04183
1.02262
1.04178
1.02469
1.04213
1.02475
1.04334
1.02573
1.04335
1.02651
1.04455
1.02643
1.04582
1.02724
1.04746
1.02832
1.04841
1.02987
1.0494
1.0313
1.05086
1.03246
1.05157
1.03295
1.05244
1.03367
1.05177
1.03397
1.05117
1.03313
1.04968
1.03174
1.0469
1.02879
1.04409
1.02576
1.04066
1.02254
1.03648
1.01916
1.03236
1.01361
1.02615
1.00819
1.01812
1.00176
1.00857
0.995876
0.999591
0.989104
0.990836
0.984656
0.981897
0.979052
0.974222
0.972324
0.923204
1.03252
1.01657
1.02174
1.00316
1.02075
1.02049
1.01604
1.03245
1.0196
1.03705
1.01946
1.03963
1.02029
1.03947
1.02425
1.04052
1.02523
1.04106
1.02657
1.04068
1.02768
1.04179
1.02804
1.04282
1.02852
1.04347
1.02815
1.0455
1.02876
1.0467
1.02951
1.04766
1.03049
1.04893
1.03178
1.04975
1.03228
1.05032
1.03335
1.05134
1.03387
1.05178
1.03434
1.05209
1.03396
1.0509
1.03271
1.0491
1.03094
1.04652
1.02898
1.04345
1.02575
1.03974
1.02184
1.0357
1.0168
1.02982
1.01223
1.02289
1.00799
1.01458
1.00352
1.00591
0.995704
0.997673
0.989269
0.989218
0.985145
0.981266
0.978823
0.973553
0.970957
0.918545
1.03417
1.04117
1.00098
1.02556
1.0217
1.01225
1.02999
1.01024
1.04059
1.01412
1.04618
1.01617
1.0452
1.01872
1.0445
1.01959
1.042
1.02259
1.04117
1.02396
1.04132
1.02528
1.04188
1.02544
1.0429
1.02684
1.04298
1.02717
1.04426
1.02694
1.04594
1.02767
1.04762
1.02895
1.04823
1.03021
1.04941
1.0314
1.05076
1.03253
1.05157
1.03309
1.05227
1.03371
1.05156
1.03407
1.05083
1.03297
1.0494
1.03143
1.04666
1.02849
1.04371
1.02532
1.04033
1.02193
1.03618
1.01858
1.03195
1.01286
1.02546
1.00742
1.01735
1.00119
1.00793
0.995018
0.999054
0.988348
0.990422
0.983651
0.981459
0.978002
0.973976
0.969707
0.926195
1.03313
1.01784
1.02199
1.00284
1.01995
1.0202
1.01549
1.03182
1.01947
1.03643
1.0196
1.03931
1.02068
1.03879
1.02287
1.03813
1.0259
1.0395
1.0254
1.04054
1.02723
1.04086
1.02776
1.04165
1.02838
1.04242
1.02882
1.04368
1.02846
1.04522
1.02886
1.0466
1.02975
1.04767
1.03074
1.04914
1.03186
1.04965
1.03288
1.05033
1.03357
1.05133
1.03394
1.05179
1.03427
1.05178
1.03405
1.05081
1.03247
1.04878
1.03073
1.04608
1.0286
1.04305
1.02524
1.03942
1.02131
1.03527
1.01614
1.02925
1.01166
1.0226
1.00717
1.01403
1.00248
1.00532
0.995077
0.997159
0.988462
0.988907
0.984249
0.980899
0.977608
0.973654
0.968358
0.922306
1.03375
1.04153
1.00151
1.02449
1.02188
1.01156
1.02979
1.00957
1.04004
1.01399
1.04514
1.01608
1.04514
1.0181
1.04185
1.02083
1.0416
1.02188
1.04161
1.024
1.04038
1.02476
1.04123
1.02591
1.04198
1.02617
1.04264
1.02733
1.04297
1.02804
1.04411
1.02766
1.04581
1.02808
1.04765
1.02929
1.04827
1.03064
1.04948
1.0317
1.05073
1.03261
1.05145
1.03327
1.05228
1.03389
1.05115
1.03403
1.05061
1.03284
1.04915
1.0311
1.04634
1.02821
1.04325
1.02482
1.04005
1.02126
1.03597
1.01797
1.03149
1.01206
1.02484
1.0067
1.01665
1.00058
1.00729
0.994201
0.998513
0.987606
0.989957
0.982518
0.981284
0.97645
0.974215
0.968634
0.930214
1.03352
1.01903
1.02234
1.00263
1.01913
1.01987
1.015
1.03126
1.01935
1.03577
1.01975
1.03839
1.02078
1.03714
1.02307
1.03859
1.02564
1.03911
1.02553
1.03983
1.02625
1.04003
1.02736
1.04081
1.02778
1.04175
1.02845
1.04257
1.02885
1.04365
1.02875
1.04482
1.0289
1.04667
1.02979
1.04763
1.03095
1.04909
1.03194
1.04956
1.033
1.05035
1.03375
1.05144
1.03404
1.05179
1.03433
1.05177
1.03399
1.05059
1.03225
1.04855
1.03043
1.0457
1.02821
1.04294
1.02469
1.03908
1.02082
1.03497
1.01557
1.02876
1.011
1.02221
1.00638
1.01363
1.00141
1.00482
0.994369
0.996654
0.987708
0.988559
0.9833
0.980856
0.975855
0.973964
0.967628
0.926014
1.03358
1.0419
1.00201
1.02331
1.0221
1.01089
1.02959
1.00892
1.03958
1.01383
1.04424
1.01647
1.04384
1.01718
1.03841
1.02193
1.04122
1.02155
1.03877
1.02409
1.04005
1.02525
1.04059
1.02538
1.04122
1.02628
1.04157
1.02698
1.04262
1.02779
1.04301
1.02834
1.0444
1.02838
1.04602
1.02846
1.04751
1.02961
1.04833
1.03088
1.04959
1.03193
1.05076
1.03277
1.05156
1.03341
1.05213
1.03396
1.0509
1.03399
1.05042
1.03264
1.04886
1.03085
1.04599
1.02785
1.04296
1.02437
1.03973
1.02082
1.03568
1.01732
1.03099
1.01134
1.02414
1.00596
1.01594
0.999898
1.00654
0.993515
0.997905
0.986758
0.989541
0.98148
0.981165
0.97508
0.974505
0.966993
0.933867
1.03408
1.02051
1.02262
1.00252
1.01829
1.01959
1.01459
1.03076
1.01922
1.03511
1.01983
1.03685
1.02091
1.03582
1.02556
1.03773
1.02519
1.03834
1.02615
1.03977
1.02604
1.03979
1.0267
1.03999
1.02747
1.04079
1.02785
1.04133
1.02853
1.0426
1.02901
1.04374
1.02887
1.04475
1.02892
1.04648
1.03001
1.04765
1.03114
1.04915
1.0321
1.04963
1.03303
1.05034
1.03381
1.05144
1.03419
1.05182
1.0344
1.05179
1.03389
1.05046
1.03205
1.04832
1.03017
1.04538
1.02781
1.04255
1.02423
1.03878
1.02027
1.03461
1.01494
1.02834
1.01047
1.02171
1.0055
1.01321
1.00037
1.00439
0.993484
0.996115
0.986936
0.988298
0.982141
0.980806
0.974624
0.974612
0.965809
0.930637
1.03322
1.04242
1.0025
1.02212
1.02226
1.01022
1.02937
1.00835
1.03917
1.0137
1.04367
1.0162
1.04183
1.01827
1.03834
1.02232
1.03869
1.02222
1.03854
1.02506
1.03806
1.02561
1.03922
1.02571
1.04051
1.02593
1.04112
1.02688
1.04192
1.02727
1.04264
1.02799
1.04317
1.02852
1.04443
1.02856
1.04607
1.02872
1.04761
1.02988
1.04838
1.03105
1.04967
1.03207
1.05077
1.03293
1.05163
1.0335
1.05199
1.034
1.05091
1.03384
1.05028
1.03238
1.04863
1.03052
1.04567
1.02741
1.04261
1.02394
1.03939
1.02021
1.03545
1.01672
1.03041
1.01065
1.02327
1.00531
1.01499
0.999204
1.00589
0.992736
0.997244
0.985911
0.989154
0.980287
0.98106
0.973857
0.975287
0.964668
0.938596
1.03447
1.02167
1.02268
1.00267
1.0175
1.01935
1.01425
1.03029
1.0191
1.03426
1.02038
1.03387
1.02308
1.03724
1.0257
1.03729
1.02593
1.03774
1.02597
1.03893
1.02678
1.03956
1.02669
1.03979
1.02692
1.03963
1.02781
1.04077
1.02807
1.04144
1.02859
1.04265
1.02906
1.04378
1.02902
1.04478
1.02912
1.04629
1.03022
1.04758
1.03128
1.04913
1.03223
1.04967
1.03315
1.05043
1.03383
1.05146
1.03434
1.05176
1.03443
1.05167
1.03375
1.05033
1.03186
1.04805
1.02988
1.04511
1.02739
1.04215
1.02381
1.03845
1.01977
1.03425
1.01446
1.02777
1.01002
1.02121
1.00476
1.01284
0.999367
1.00391
0.992722
0.995557
0.986111
0.988016
0.980985
0.980833
0.97328
0.975533
0.963542
0.935495
1.03295
1.04313
1.00313
1.02132
1.02221
1.00959
1.02918
1.00787
1.03875
1.0136
1.0424
1.01789
1.0401
1.01857
1.03872
1.02184
1.03733
1.02349
1.03782
1.0252
1.03713
1.02567
1.03831
1.02607
1.03921
1.02616
1.04059
1.02627
1.04103
1.02703
1.04177
1.02777
1.04257
1.02823
1.0433
1.02869
1.04449
1.02874
1.0461
1.02907
1.0475
1.0301
1.04842
1.03123
1.04975
1.03226
1.05073
1.03315
1.05161
1.03359
1.05193
1.03389
1.05082
1.03371
1.05014
1.03222
1.0484
1.03015
1.04547
1.02708
1.04223
1.02342
1.0391
1.01967
1.03507
1.01618
1.02966
1.01011
1.02204
1.0047
1.01423
0.998436
1.0052
0.991851
0.99656
0.984873
0.988857
0.97911
0.981323
0.972414
0.976025
0.962899
0.943468
1.03481
1.02278
1.02267
1.00242
1.01686
1.01909
1.01394
1.02981
1.01902
1.03339
1.02129
1.03378
1.02474
1.03695
1.02394
1.03564
1.02629
1.03696
1.02716
1.03758
1.02687
1.03897
1.02694
1.03872
1.02732
1.03951
1.02747
1.0395
1.02807
1.04091
1.02837
1.04125
1.02865
1.04273
1.02904
1.0437
1.02909
1.0448
1.02937
1.04634
1.03038
1.04781
1.03142
1.04913
1.03243
1.04973
1.03321
1.05051
1.03396
1.05148
1.03443
1.05162
1.03439
1.05147
1.03363
1.05015
1.03163
1.04783
1.02957
1.04478
1.02698
1.04171
1.02331
1.03815
1.01923
1.03376
1.01394
1.02716
1.00972
1.02027
1.0039
1.01224
0.998464
1.00337
0.991919
0.995124
0.985163
0.987796
0.979715
0.981195
0.971758
0.976187
0.961676
0.940285
1.03286
1.04384
1.00376
1.02052
1.02216
1.00906
1.02901
1.00747
1.03831
1.0135
1.04155
1.01719
1.03999
1.01804
1.03601
1.022
1.03621
1.0241
1.03632
1.02455
1.03776
1.02572
1.03751
1.02638
1.03768
1.02641
1.03911
1.02649
1.04053
1.02656
1.04085
1.0274
1.04201
1.02804
1.04261
1.0285
1.04331
1.02881
1.04454
1.02882
1.04612
1.0293
1.04754