/*--------------------------------*- C++ -*----------------------------------*\
| =========                 |                                                 |
| \\      /  F ield         | OpenFOAM: The Open Source CFD Toolbox           |
|  \\    /   O peration     | Version:  2206                                  |
|   \\  /    A nd           | Website:  www.openfoam.com                      |
|    \\/     M anipulation  |                                                 |
\*---------------------------------------------------------------------------*/
FoamFile
{
    version     2.0;
    format      ascii;
    arch        "LSB;label=32;scalar=64";
    class       volScalarField;
    location    "160";
    object      pPrime2Mean;
}
// * * * * * * * * * * * * * * * * * * * * * * * * * * * * * * * * * * * * * //

dimensions      [2 -2 -4 0 0 0 0];

internalField   nonuniform List<scalar> 
93840
(
0.00578486
0.00341254
0.0146886
0.000893173
0.001034
0.0123477
0.00256183
0.0056855
0.00151465
0.0196594
0.000193789
0.0130912
0.00353894
0.00444657
0.0203906
9.93235e-05
0.00993281
0.00783595
0.0035552
0.00397561
0.0274562
0.000352129
0.00625497
0.00675481
0.00699989
0.00335579
0.00241426
0.0275691
0.000339769
0.00735489
0.00747165
0.00575957
0.00413747
0.00351749
0.0019909
0.047537
0.000446816
0.00320708
0.00797158
0.00763255
0.00216413
0.00128523
0.00111885
0.00191879
0.0263728
0.00057424
0.00364561
0.0065858
0.00673291
0.00307796
0.0014363
0.00138602
0.00183989
0.00421124
0.0413289
0.00045497
0.00309762
0.00466461
0.00487635
0.00153961
0.000717092
0.000689878
0.00230393
0.00298281
0.00314271
0.0154389
0.000482664
0.00391335
0.00569236
0.00457099
0.00222908
0.000564865
0.00178192
0.00138286
0.00403579
0.00447896
0.00255772
0.0139231
0.000412766
0.00210179
0.00538996
0.00297407
0.00108023
0.000449385
0.00050111
0.00237483
0.00144887
0.00283339
0.00457563
0.00239659
0.0077722
0.000541349
0.00287585
0.00646286
0.00396188
0.00144554
0.00021028
0.0020334
0.00143388
0.00256539
0.00199178
0.00239118
0.0018519
0.00186588
0.00591758
0.000329982
0.00141282
0.00613644
0.00270334
0.000681369
0.000223897
0.000403737
0.00187373
0.000898054
0.00211089
0.00215099
0.00206432
0.00322044
0.00151645
0.00305688
0.000425185
0.00223534
0.00661968
0.00291612
0.000563589
0.000123228
0.00171439
0.00109247
0.00182534
0.00139354
0.00163432
0.00158108
0.00158202
0.00173537
0.00111144
0.00216765
0.000326618
0.00102245
0.00661949
0.0015021
0.00036291
0.00022429
0.000390094
0.0013698
0.000543217
0.00171338
0.00121214
0.00144658
0.00171959
0.00116353
0.00179716
0.000799059
0.00158742
0.000457585
0.00186781
0.00675894
0.00170036
0.000336412
0.000233263
0.00107403
0.000503061
0.00133867
0.00092616
0.00129616
0.00129962
0.00118943
0.0011951
0.000953355
0.00110992
0.000553688
0.000702083
0.000363068
0.000942787
0.0067017
0.000754368
0.000241861
0.000200802
0.000192878
0.000820843
0.00037358
0.00107097
0.000709571
0.00117632
0.0011491
0.000854057
0.00131429
0.000651156
0.000957096
0.000361152
0.00138217
0.000529123
0.00168056
0.00641087
0.000931136
0.000253803
0.000316803
0.000620704
0.000126372
0.000844758
0.000490631
0.0011713
0.000811922
0.00100724
0.00112706
0.000903716
0.000995217
0.000495637
0.000626294
0.000231915
0.000290952
0.000583949
0.00113631
0.00629298
0.000518871
0.000193848
0.000223769
5.13628e-05
0.000513769
0.000356015
0.000718482
0.000401571
0.000871995
0.000792727
0.000686585
0.00104527
0.000598427
0.000950627
0.000360307
0.000504428
0.000138816
0.00166605
0.000626429
0.00148417
0.00577143
0.000617432
0.000204576
0.000294638
0.000359165
0.000128615
0.000487767
0.000182147
0.000729412
0.000484519
0.00087941
0.000697871
0.000852406
0.000905569
0.000611069
0.000727322
0.000248092
0.000341906
9.68417e-05
0.000274181
0.00100023
0.00145229
0.0057812
0.000325537
0.000165282
0.000219449
0.000101149
0.000341268
0.000346522
0.000585091
0.000329913
0.000665477
0.000435932
0.000641551
0.000786754
0.000666262
0.000873631
0.000437415
0.000664764
0.000201927
0.000267442
6.69334e-05
0.00174791
0.000551128
0.00138672
0.00465292
0.000461137
0.000167374
0.000257344
0.000182815
0.000227262
0.000283412
9.31088e-05
0.000419024
0.000223298
0.000635668
0.000438362
0.000760881
0.000580382
0.00065378
0.000777122
0.000462303
0.000549849
0.000136717
0.000177202
6.21683e-05
0.00019872
0.00118097
0.00166027
0.00510326
0.000257056
0.000142054
0.000165498
0.000142745
0.000256007
0.000313192
0.000347331
0.000353425
0.000611766
0.000310108
0.000541757
0.000470203
0.000498138
0.000763335
0.000488213
0.000719985
0.000326213
0.000482331
0.000124198
0.000133663
5.00455e-05
0.000802029
0.000466385
0.00141417
0.00329685
0.000437588
0.000157438
0.000283821
0.000132039
0.000314392
0.000155051
0.000152732
0.000233547
0.000139754
0.000375628
0.000292568
0.000591112
0.000373821
0.000672859
0.00047829
0.000611701
0.00067122
0.000363595
0.000426388
8.77409e-05
0.000112208
4.40406e-05
0.000990649
0.00118643
0.00170035
0.00412877
0.000270463
0.000123449
9.35027e-05
9.58149e-05
0.000108795
0.000242817
0.000273855
0.000376933
0.000334726
0.000310435
0.000516862
0.00031308
0.000523149
0.000470535
0.000432505
0.000707817
0.000330055
0.000605235
0.000254621
0.000347924
9.71734e-05
4.72534e-05
0.000227428
0.000799885
0.000472029
0.00142338
0.00218848
0.000505698
0.000169509
0.000316898
0.000164462
0.000362264
0.000150152
0.000182491
0.000152313
0.000111489
0.000288973
0.000187554
0.000417231
0.000266156
0.000555485
0.000335298
0.000579601
0.000446239
0.000522418
0.000571306
0.000301513
0.000298167
7.0058e-05
5.80184e-05
0.000229113
0.000854645
0.00109398
0.00169174
0.00323119
0.000284351
0.000117704
9.09638e-05
0.000128033
4.29142e-05
0.000128682
0.000173867
0.000238237
0.000206217
0.000332474
0.000334677
0.000254884
0.000508175
0.000321088
0.000483282
0.000468288
0.000408238
0.000635186
0.00032684
0.000511298
0.000214812
0.000275913
9.46588e-05
3.47148e-05
0.000239339
0.000709252
0.000525377
0.00138631
0.00141806
0.000589164
0.000195453
0.000330452
0.000147783
0.000326381
0.000178712
0.000288293
0.000109531
0.000165513
0.000146602
0.000113408
0.00037153
0.000148674
0.000464481
0.000256287
0.000564561
0.000327209
0.000528507
0.000435546
0.000457188
0.000489992
0.000259407
0.000223989
8.52404e-05
4.48954e-05
0.000231894
0.000589301
0.000957026
0.00168115
0.00254707
0.000271782
0.000101056
0.000146092
0.000154949
5.45896e-05
0.000141279
0.000137446
0.000142032
0.000202755
0.000246821
0.000208051
0.000292743
0.000361542
0.00026776
0.000504509
0.000311805
0.000434338
0.000451971
0.000404389
0.000542827
0.00036992
0.000422832
0.0001903
0.000225867
0.000108918
4.88235e-05
0.000217894
0.000482287
0.000575498
0.00136197
0.000840955
0.000626654
0.000216048
0.000328153
0.000119225
0.000308256
0.000110706
0.000339048
8.35368e-05
0.000244075
0.000183532
0.00012827
0.000208534
0.000114565
0.000387546
0.000188286
0.000460265
0.000251235
0.000543333
0.000299914
0.000516382
0.000418896
0.000437542
0.000407159
0.000235707
0.000170685
0.000101186
7.1333e-05
0.000234658
0.000508397
0.000828293
0.00161593
0.00203437
0.000224739
9.48003e-05
0.00019802
0.000136397
6.81914e-05
0.000220202
9.25831e-05
0.000173283
0.000149268
0.000149709
0.00017003
0.000240684
0.000251035
0.00026214
0.000404248
0.00022942
0.000491607
0.000305814
0.000423004
0.000459921
0.000398433
0.000460711
0.000331855
0.000348057
0.000186388
0.000196315
0.000123096
8.97769e-05
0.000262403
0.000311136
0.000630561
0.00138214
0.00051548
0.000600342
0.000222491
0.00030095
0.000155207
0.000295803
5.74098e-05
0.000337377
3.63328e-05
0.000274712
7.43944e-05
0.000194587
0.000152007
0.00010512
0.00024425
0.000107405
0.000399311
0.000176426
0.000479665
0.000244587
0.000560103
0.000264237
0.00049699
0.000398282
0.000437472
0.000335987
0.000229965
0.000145762
0.000126216
9.84545e-05
0.000296085
0.000366873
0.000721225
0.00153779
0.00171452
0.000211319
0.000102045
0.000254584
0.000137289
6.8693e-05
0.00017746
8.43207e-05
0.000184889
0.000123498
0.000171347
0.000155112
0.000183012
0.000190628
0.000201705
0.000307915
0.00022857
0.0004094
0.000213969
0.00048402
0.00029833
0.000415363
0.000450634
0.000454913
0.000396163
0.000344332
0.00029457
0.000188749
0.000165363
0.000134163
0.000128948
0.000286786
0.00026376
0.000643537
0.00144853
0.000369146
0.000534516
0.0002123
0.000250699
0.000187016
0.000292951
5.27055e-05
0.000279524
4.6691e-05
0.000273853
4.38202e-05
0.000203056
7.11422e-05
0.00015899
0.000164419
0.000103664
0.000298095
0.000110735
0.000402243
0.000170995
0.000503782
0.000234963
0.000546283
0.000235184
0.0004544
0.000290512
0.000439358
0.000273393
0.00022456
0.000129809
0.00015574
0.000131238
0.000307992
0.000370318
0.000639283
0.00140733
0.00156731
0.000221573
0.000110388
0.000313355
0.000157011
5.30385e-05
0.000151027
7.87287e-05
0.000187495
0.000117601
0.000175999
0.00016464
0.000180093
0.000149354
0.000206274
0.000202946
0.000171811
0.000333353
0.000212303
0.000462126
0.000212805
0.000482369
0.000292563
0.000439484
0.000451077
0.000384498
0.000393068
0.000316365
0.000260914
0.00021318
0.000135933
0.000156012
0.000153628
0.000305072
0.000347197
0.000619127
0.00150136
0.000271887
0.000457005
0.000194106
0.000198638
0.000197646
0.000318053
6.01275e-05
0.000303987
0.000105938
0.000255921
5.50211e-05
0.000236713
5.41222e-05
0.000178112
8.54192e-05
0.000148926
0.00018335
9.18137e-05
0.000313205
0.000113817
0.000393396
0.000167816
0.000486844
0.000230122
0.000543267
0.000213607
0.000647389
0.000249192
0.000429745
0.000223688
0.000230627
0.000123475
0.000188699
0.000138766
0.000298427
0.000468393
0.00058414
0.00126328
0.00148154
0.000229499
0.000141119
0.000341485
0.000191116
2.80755e-05
0.000130356
5.44892e-05
0.000201716
8.08337e-05
0.000205331
0.000140676
0.00018168
0.000167722
0.000179374
0.000134861
0.00022468
0.000197182
0.000189199
0.000360812
0.000202168
0.000498405
0.000242119
0.000496296
0.000294213
0.000454726
0.000417365
0.000393914
0.000359764
0.000329652
0.000223248
0.000254809
0.000112492
0.000196186
0.000163524
0.00029352
0.00048265
0.000592597
0.00154631
0.000284424
0.000368948
0.000184036
0.000152266
0.000200889
0.000307191
6.93352e-05
0.000373854
0.000110374
0.000263998
7.94516e-05
0.000240815
6.08698e-05
0.000217563
5.36055e-05
0.000167204
0.000106675
0.000157885
0.000185594
0.000102722
0.000313595
0.000123171
0.000362904
0.000168458
0.000493513
0.000225654
0.000557788
0.000200358
0.000639814
0.000223224
0.000432188
0.000183194
0.000249897
0.000120355
0.000215563
0.000145073
0.000281282
0.000615459
0.000572298
0.00119733
0.00150902
0.000232967
0.000171409
0.000334364
0.000227654
2.19587e-05
0.000115622
6.60547e-05
0.000163032
4.414e-05
0.000207661
9.12498e-05
0.000175481
0.000132858
0.000179054
0.000161404
0.000171916
0.000123326
0.000227994
0.000197566
0.000179027
0.000392143
0.000212291
0.000484936
0.000256304
0.000462792
0.00029253
0.000462763
0.000387085
0.000398367
0.000326145
0.000336959
0.000191577
0.000287016
9.76868e-05
0.000249728
0.000177446
0.000246374
0.000628086
0.000561956
0.00160747
0.000233101
0.00026706
0.000177874
9.29167e-05
0.000212556
0.000281813
0.000101416
0.00035067
8.2774e-05
0.000329644
9.31915e-05
0.000218297
7.65896e-05
0.000237721
5.80164e-05
0.000216818
4.96266e-05
0.000179642
0.000114679
0.000177235
0.000201738
0.000109704
0.000280834
0.000125163
0.000373994
0.000181919
0.000496787
0.000225285
0.000599061
0.000192404
0.000615821
0.000200412
0.000452449
0.000154543
0.000282872
0.00011196
0.000248703
0.00015332
0.000265088
0.000815978
0.000607111
0.00111943
0.0015752
0.000217551
0.000205512
0.000318422
0.00028003
2.25493e-05
0.000116331
7.77334e-05
0.000131137
5.6724e-05
0.000156199
6.16857e-05
0.000194884
9.22462e-05
0.00015242
0.000122294
0.00018802
0.000152995
0.000160501
0.000124734
0.000224623
0.000201519
0.000169561
0.000389263
0.000217743
0.000470398
0.000262435
0.000462425
0.000298857
0.000446323
0.000358619
0.00041047
0.000289666
0.000360046
0.000160988
0.000328608
9.59073e-05
0.000294984
0.0001696
0.000231808
0.00076038
0.00051684
0.00165801
0.000213978
0.000215853
0.000168978
6.49674e-05
0.00020524
0.000242627
0.000148792
0.000272546
7.81075e-05
0.000306718
8.88101e-05
0.000277424
8.09126e-05
0.000292344
6.5198e-05
0.000228933
4.96193e-05
0.00022669
4.9279e-05
0.000201577
0.000116146
0.000182333
0.000198212
0.000111721
0.000276344
0.000130827
0.00037976
0.000201966
0.000509288
0.000227317
0.000610547
0.00018259
0.000602341
0.000187891
0.000472998
0.000147501
0.00032187
0.000105017
0.000301605
0.000153567
0.00026225
0.000842917
0.000657798
0.00100073
0.0016538
0.000204432
0.000247642
0.000281196
0.000312247
3.70603e-05
0.000159005
9.43644e-05
0.000160334
5.49922e-05
0.000118842
5.14915e-05
0.000148107
7.25987e-05
0.000144539
6.76239e-05
0.000140772
0.000123583
0.00019999
0.000139836
0.000159173
0.000137523
0.000208302
0.000235041
0.000164954
0.000389073
0.000222194
0.000457877
0.000271861
0.000455663
0.000306997
0.000437568
0.000341022
0.000415443
0.000258999
0.000392048
0.000137182
0.000361748
9.70751e-05
0.00033409
0.000150909
0.000301085
0.000792404
0.000476745
0.00169972
0.000233879
0.000206117
0.000165301
5.52943e-05
0.00018229
0.000211169
0.000172343
0.000227424
0.000102872
0.000243406
5.33117e-05
0.000257969
5.93882e-05
0.000278055
8.2899e-05
0.000255849
7.36502e-05
0.000225557
3.85881e-05
0.000228172
5.94983e-05
0.000219504
0.000121
0.000190422
0.00020855
0.000115569
0.00027943
0.000136752
0.000385053
0.000218618
0.000511019
0.000233352
0.000603385
0.000176346
0.000604169
0.000175563
0.000510978
0.000141236
0.000352309
9.99459e-05
0.000340142
0.00013627
0.0003412
0.000917013
0.000721583
0.000848244
0.00168627
0.000202657
0.000302883
0.0002332
0.00031934
5.32697e-05
0.000179523
8.98641e-05
0.000198334
6.30151e-05
0.000142108
3.80582e-05
9.62916e-05
4.45434e-05
0.000130289
6.47322e-05
0.000128533
6.87717e-05
0.00013928
0.000108654
0.000208978
0.00011546
0.000160162
0.00014365
0.000210726
0.000242977
0.000162562
0.000374235
0.0002273
0.000443145
0.000280656
0.000452859
0.000328572
0.000443544
0.000328511
0.000429675
0.000232539
0.000425901
0.000126835
0.000384097
9.49868e-05
0.000356517
0.000126314
0.000386093
0.000776377
0.000459392
0.00175268
0.000259791
0.000212097
0.000157318
5.71165e-05
0.000150294
0.000183801
0.000189432
0.000182625
6.54707e-05
0.000157751
4.55854e-05
0.000227492
5.55382e-05
0.00024822
6.14801e-05
0.000269233
0.000112851
0.000226872
7.95459e-05
0.000217759
4.14885e-05
0.000239416
6.69049e-05
0.000241007
0.000134665
0.000170715
0.00020134
0.000130812
0.000275279
0.000148369
0.000379913
0.000233331
0.000506186
0.000228764
0.000596657
0.000167246
0.000609482
0.000165147
0.000545426
0.000141251
0.000371218
9.83147e-05
0.000365093
0.000123592
0.000432635
0.000959618
0.000804399
0.000709915
0.00171877
0.000201841
0.000359952
0.000181061
0.000323433
7.0491e-05
0.000184311
8.42278e-05
0.00018379
6.47673e-05
0.000110209
6.28392e-05
0.000107082
2.73047e-05
7.72897e-05
4.23559e-05
0.000105432
6.21878e-05
0.000114678
6.86194e-05
0.000145675
0.000101375
0.000212925
0.000110544
0.000189174
0.000148657
0.000194408
0.000264533
0.000158368
0.000377148
0.000236473
0.000430349
0.000289663
0.000450629
0.000332041
0.000460859
0.000321587
0.000446436
0.000212345
0.000442337
0.000113372
0.000394475
9.09664e-05
0.000378768
0.000118097
0.000481747
0.000752244
0.000433421
0.00175403
0.00031442
0.000227574
0.00014836
6.6466e-05
0.000113097
0.000154318
0.000200328
0.000187822
5.53652e-05
0.000137287
5.51369e-05
0.000134479
6.15055e-05
0.00018914
5.92634e-05
0.000234276
7.07539e-05
0.000234042
0.000119929
0.000207307
8.18785e-05
0.000217836
4.05003e-05
0.000252345
8.19731e-05
0.000246692
0.000140801
0.000182634
0.000207099
0.00014393
0.000264591
0.000160979
0.000380205
0.000242825
0.000518648
0.000241336
0.000599208
0.000165244
0.000606058
0.000157351
0.0005479
0.000130381
0.000374017
9.90051e-05
0.000387317
0.00013006
0.000526446
0.000979584
0.000888766
0.000605615
0.0017004
0.000199304
0.000416291
0.000137042
0.000333359
8.57542e-05
0.000195565
7.98901e-05
0.000206942
8.94465e-05
0.000137251
4.10492e-05
0.000114075
5.1616e-05
7.82649e-05
3.80791e-05
5.787e-05
4.91092e-05
9.56963e-05
4.83286e-05
0.000106149
5.70964e-05
0.000157278
9.16985e-05
0.000218323
0.000102951
0.000205829
0.00015429
0.000208662
0.000275154
0.000174006
0.000376014
0.000248845
0.000423827
0.000307879
0.000448587
0.000340028
0.000471111
0.000310733
0.000465824
0.000197739
0.000454302
0.000102616
0.000403626
8.54015e-05
0.000403125
0.000127424
0.000556274
0.000773468
0.000410735
0.0017128
0.000333455
0.000248687
0.00013111
8.37636e-05
8.37629e-05
0.000133293
0.000191709
0.000155295
7.48334e-05
0.000131786
5.99368e-05
0.000125853
6.61577e-05
0.000142439
7.368e-05
0.000181048
6.11796e-05
0.000222262
8.07243e-05
0.000192044
0.000110364
0.000194149
8.65254e-05
0.000207502
4.23953e-05
0.000255549
9.04877e-05
0.000217079
0.00015838
0.000184235
0.000212878
0.00016062
0.000259457
0.000175082
0.000380833
0.000258468
0.000515979
0.000253149
0.000589501
0.000170013
0.000594554
0.000153294
0.000533268
0.000123518
0.000374189
9.34504e-05
0.00042225
0.000134669
0.000586918
0.00100898
0.000979789
0.000490606
0.00164808
0.000191333
0.000458286
9.82943e-05
0.000357564
9.27379e-05
0.00019471
9.73699e-05
0.000195934
0.000104807
0.000162195
4.96606e-05
0.00014906
4.56144e-05
9.06979e-05
5.25182e-05
6.27815e-05
4.39884e-05
5.09084e-05
4.50638e-05
7.7781e-05
4.53262e-05
0.000102362
5.34509e-05
0.000153142
8.4814e-05
0.000221965
9.65927e-05
0.000226459
0.00016148
0.00022289
0.00027991
0.000191887
0.000377691
0.000256699
0.000423056
0.000317347
0.000456443
0.000344188
0.000478585
0.000298459
0.000476958
0.000178224
0.000454473
8.97306e-05
0.000396893
8.06637e-05
0.000412735
0.000127331
0.000622748
0.000797677
0.000386368
0.00155503
0.000343179
0.000254604
0.000114923
0.000104905
6.34615e-05
0.000117002
0.000164021
0.000121879
8.45628e-05
0.000124908
5.1009e-05
0.000110632
7.15413e-05
9.98702e-05
4.84081e-05
0.000125206
7.03054e-05
0.000165013
7.15772e-05
0.000204568
7.96156e-05
0.000142955
0.000103312
0.000176758
8.92132e-05
0.000208174
4.82812e-05
0.000233983
9.45621e-05
0.000212578
0.00017821
0.000185358
0.000225713
0.000185065
0.000265015
0.000189777
0.000387445
0.000268677
0.000522533
0.000267392
0.000582282
0.000173233
0.000585646
0.000151573
0.00051301
0.000114649
0.000381102
8.66104e-05
0.000433987
0.000129942
0.000651768
0.00107347
0.00105915
0.00039808
0.00157326
0.000176916
0.000488823
6.52676e-05
0.000377582
8.85612e-05
0.000195589
9.79075e-05
0.000181211
9.06995e-05
0.000129655
3.8547e-05
0.000175284
4.64906e-05
0.000123427
4.53194e-05
7.50732e-05
3.99325e-05
5.88856e-05
5.76582e-05
4.56297e-05
4.66416e-05
5.7687e-05
4.15306e-05
9.37107e-05
4.94713e-05
0.000146085
7.82408e-05
0.000228826
0.000100925
0.000237211
0.000167542
0.000233872
0.000280797
0.000186613
0.00038099
0.000261656
0.000418581
0.000333517
0.000445374
0.000358749
0.000477233
0.000296614
0.000466151
0.000159574
0.000438307
8.49828e-05
0.000394427
7.70007e-05
0.000414517
0.000121622
0.000685563
0.000878205
0.000343811
0.00138486
0.000322473
0.000255906
0.000100097
0.000126098
5.18574e-05
0.000111789
0.000137299
8.94259e-05
5.3235e-05
0.000134759
7.06543e-05
0.000117683
5.66798e-05
9.68532e-05
5.96987e-05
9.08314e-05
5.11385e-05
0.000113302
7.4657e-05
0.000129434
8.79939e-05
0.000173775
7.16023e-05
0.000133991
9.83035e-05
0.000157322
9.08761e-05
0.000210294
5.65948e-05
0.000235041
0.000105141
0.000221913
0.000194738
0.000200434
0.000237799
0.000193309
0.00027761
0.000198578
0.000389589
0.000283115
0.000522358
0.000276952
0.000574176
0.00017523
0.000559993
0.000147501
0.000485948
0.000100253
0.000380433
7.65402e-05
0.000440344
0.000119776
0.000723152
0.00122024
0.00109437
0.000320192
0.00141168
0.000165362
0.000507403
4.13117e-05
0.000386676
8.06892e-05
0.000199678
8.85741e-05
0.000188401
5.48159e-05
0.000124124
4.44125e-05
0.000136437
4.49235e-05
0.000134179
3.19816e-05
0.000115329
3.1628e-05
4.90008e-05
3.5497e-05
6.01135e-05
6.02123e-05
4.06769e-05
5.44622e-05
5.9086e-05
5.83818e-05
9.04674e-05
4.78846e-05
0.000155048
7.21759e-05
0.00024173
0.000112743
0.000249759
0.000188791
0.000253798
0.000292482
0.000223273
0.000369958
0.000273208
0.00042316
0.000343639
0.000449141
0.000371234
0.000470585
0.000295526
0.0004444
0.000148633
0.00041316
8.07703e-05
0.000400147
7.07705e-05
0.000415224
0.000119747
0.000752511
0.00105819
0.000301964
0.00123514
0.000269479
0.000250318
9.94516e-05
0.000145661
4.31307e-05
0.000111251
0.000117928
6.58059e-05
5.35752e-05
0.000114826
4.81177e-05
8.97122e-05
5.77761e-05
9.07812e-05
5.0292e-05
9.04153e-05
6.12014e-05
8.16422e-05
5.12428e-05
8.19456e-05
7.32949e-05
0.000117257
9.31626e-05
0.000124194
7.1174e-05
0.000113376
9.03968e-05
0.000147877
9.31947e-05
0.000190662
6.29971e-05
0.000233794
0.000118678
0.000233198
0.000217807
0.000205849
0.000249026
0.000212098
0.000296647
0.000211741
0.000402228
0.000295946
0.000525037
0.00028578
0.000563236
0.000183013
0.000577529
0.00013999
0.000450239
8.48723e-05
0.000379351
6.73673e-05
0.000442182
0.000117307
0.000785742
0.00145208
0.00112672
0.000298287
0.00128548
0.000158968
0.000520798
2.6331e-05
0.000387377
6.72569e-05
0.000209678
9.97017e-05
0.000169523
6.34918e-05
0.00014118
4.39205e-05
0.000119854
4.48762e-05
0.000120302
4.23592e-05
0.000120251
3.22676e-05
0.00010376
2.85699e-05
5.58698e-05
3.53948e-05
6.09999e-05
6.76551e-05
3.89907e-05
5.83669e-05
5.4499e-05
6.15202e-05
8.50291e-05
4.90396e-05
0.000160665
9.62338e-05
0.000249388
0.000129486
0.000267488
0.000193998
0.000272184
0.000299132
0.000238866
0.000359675
0.000287043
0.000421447
0.000360647
0.000454862
0.00037865
0.000458888
0.000288526
0.000436423
0.000142301
0.000398543
7.0924e-05
0.000400918
6.48416e-05
0.000417905
0.000118197
0.000816429
0.00126789
0.000273381
0.00109029
0.000225415
0.000252831
0.000107301
0.000160687
4.79246e-05
0.000110953
0.000113142
5.9881e-05
5.27132e-05
8.28451e-05
5.80939e-05
8.18729e-05
4.20897e-05
8.04439e-05
4.95853e-05
8.83342e-05
6.37413e-05
8.33784e-05
5.98596e-05
8.17342e-05
4.80246e-05
7.54962e-05
6.87949e-05
0.000101844
8.31523e-05
0.000107021
6.85463e-05
9.924e-05
9.26492e-05
0.000126409
9.1158e-05
0.000183971
7.49803e-05
0.000237867
0.000134419
0.000249961
0.000230566
0.000246753
0.000264072
0.000227616
0.000309282
0.000223516
0.00041419
0.000316088
0.000527812
0.000293384
0.000550365
0.000196548
0.000544189
0.000130129
0.000392906
6.81276e-05
0.000371641
5.68303e-05
0.000431912
0.000116469
0.000850302
0.00170153
0.00115646
0.000263685
0.00110086
0.000152842
0.000530032
1.67911e-05
0.000391953
5.43597e-05
0.000222074
0.000112449
0.000169865
5.22698e-05
0.000160426
4.78376e-05
0.000131351
3.16476e-05
0.000108007
4.31368e-05
8.71714e-05
3.71385e-05
0.000112899
3.45279e-05
9.47556e-05
2.43076e-05
5.51969e-05
3.81127e-05
5.86622e-05
7.13155e-05
5.09721e-05
6.36282e-05
6.69814e-05
6.11264e-05
8.4809e-05
5.45872e-05
0.000164205
9.79089e-05
0.000254153
0.000141308
0.000286971
0.000211213
0.000292055
0.000316727
0.000251991
0.000356536
0.000303787
0.000424687
0.000369206
0.000460064
0.000389758
0.000444735
0.000285913
0.000415411
0.000135274
0.000378904
6.0574e-05
0.000392665
5.84388e-05
0.000418242
0.000118048
0.000886859
0.00145995
0.000242512
0.000936177
0.000210414
0.000247937
0.000119572
0.000169955
5.71659e-05
0.00010231
0.000123961
5.99408e-05
3.17255e-05
6.25154e-05
5.09911e-05
6.82049e-05
5.59715e-05
6.73404e-05
3.92867e-05
7.36001e-05
5.11592e-05
9.71736e-05
7.60302e-05
8.10677e-05
6.58413e-05
7.87999e-05
4.0578e-05
7.36556e-05
6.50897e-05
9.1634e-05
8.57556e-05
9.75394e-05
7.2658e-05
7.42916e-05
9.32637e-05
0.000115503
9.14324e-05
0.000173939
8.69604e-05
0.00023956
0.00014547
0.000265544
0.000246265
0.000267864
0.000282838
0.000239821
0.000316361
0.000237428
0.000429349
0.000323854
0.000539788
0.000304839
0.000541511
0.000209176
0.000512062
0.000122528
0.000369812
5.25395e-05
0.000363774
4.70584e-05
0.00043122
0.000117588
0.000930068
0.00184443
0.00117284
0.000231765
0.0010039
0.000138216
0.00053662
1.27306e-05
0.000396288
5.22518e-05
0.000230129
0.000119825
0.000149878
6.47399e-05
0.000130915
5.32916e-05
0.000130654
2.99395e-05
0.000115398
3.42848e-05
0.000103838
2.89359e-05
8.60274e-05
3.35623e-05
0.00010975
3.65968e-05
8.978e-05
2.79319e-05
5.5022e-05
4.36766e-05
5.55983e-05
6.7971e-05
3.94683e-05
6.21931e-05
7.04953e-05
5.71249e-05
8.6515e-05
6.07626e-05
0.000165074
0.000105224
0.000254886
0.000158436
0.000308247
0.000228057
0.000303727
0.000334994
0.000267628
0.000374826
0.000322119
0.000430814
0.000369555
0.000461158
0.000397615
0.000426688
0.000283806
0.000401789
0.000130954
0.000351812
5.32684e-05
0.000382859
5.16715e-05
0.000418519
0.000119513
0.000939414
0.00156371
0.000226087
0.000832082
0.000178166
0.000250022
0.000129297
0.000173957
6.78012e-05
8.5318e-05
0.000148658
5.64392e-05
5.65909e-05
6.70002e-05
6.99038e-05
6.17862e-05
5.71779e-05
6.95432e-05
4.28742e-05
7.12496e-05
3.54743e-05
6.27518e-05
5.68992e-05
8.07567e-05
7.72588e-05
8.05986e-05
6.54677e-05
7.62028e-05
3.80246e-05
6.75408e-05
6.0573e-05
8.61808e-05
8.16561e-05
9.09861e-05
7.48468e-05
6.76156e-05
9.05801e-05
0.000109673
9.07523e-05
0.000168451
9.88278e-05
0.000240755
0.000160602
0.000281998
0.000263307
0.00028194
0.000307248
0.00025397
0.000336129
0.000248585
0.00044688
0.00032241
0.00054589
0.000316128
0.000530415
0.00022533
0.000479508
0.000117611
0.000357489
4.22481e-05
0.000347088
4.26411e-05
0.00042542
0.000119905
0.000991721
0.00194655
0.00117068
0.000214993
0.000918447
0.000131049
0.000546637
1.37888e-05
0.000396759
5.97888e-05
0.000232636
0.000137203
0.000131966
9.87313e-05
0.000121686
6.26947e-05
9.36141e-05
4.26335e-05
0.000113216
3.05292e-05
0.000104623
3.71838e-05
9.84527e-05
2.69487e-05
8.45435e-05
3.01627e-05
0.000101962
3.36505e-05
7.88661e-05
2.62907e-05
6.30918e-05
4.41713e-05
5.71926e-05
6.81441e-05
4.51226e-05
5.88429e-05
6.71103e-05
5.47502e-05
8.55912e-05
6.72454e-05
0.000158698
0.00012671
0.000255229
0.000173926
0.000320846
0.000251303
0.00031659
0.000352666
0.000287887
0.000383446
0.000320367
0.000451751
0.000372405
0.000464602
0.000413916
0.00041542
0.000288757
0.000393775
0.000127058
0.000333914
4.54243e-05
0.000370009
4.92347e-05
0.000423277
0.000120956
0.00102921
0.00166756
0.00020617
0.000792999
0.000148138
0.000260485
0.000136893
0.00017496
7.69278e-05
6.1273e-05
0.000179421
5.1924e-05
5.26505e-05
5.94977e-05
7.52369e-05
7.5723e-05
4.7528e-05
7.64711e-05
6.43433e-05
8.80924e-05
3.47003e-05
6.87847e-05
4.49417e-05
6.30867e-05
5.16851e-05
8.35357e-05
7.5645e-05
8.18441e-05
6.12665e-05
8.1757e-05
3.4599e-05
7.10074e-05
5.66663e-05
8.46198e-05
7.66839e-05
7.14803e-05
7.22794e-05
6.33421e-05
8.81836e-05
0.000103916
9.05093e-05
0.000165518
0.000108511
0.00024009
0.000180741
0.000294252
0.000287265
0.000297598
0.000328455
0.000268196
0.000356296
0.000254936
0.000475536
0.000317124
0.000552391
0.000323481
0.000519472
0.000242659
0.000446962
0.000115555
0.000335119
3.63075e-05
0.000328373
4.43531e-05
0.000418295
0.000130037
0.00107527
0.00214622
0.00115602
0.000190272
0.000837584
0.000118108
0.000552709
1.66723e-05
0.00038934
7.01221e-05
0.000231563
0.000146486
0.000130772
8.11803e-05
0.000103354
6.75109e-05
0.00010905
4.32238e-05
7.50863e-05
3.0951e-05
0.000129879
3.72896e-05
8.47871e-05
3.05381e-05
8.44627e-05
2.38917e-05
7.74235e-05
2.77957e-05
8.97838e-05
2.48904e-05
7.50685e-05
2.30216e-05
6.37011e-05
4.47989e-05
5.5801e-05
5.87171e-05
5.30219e-05
6.57047e-05
6.43534e-05
5.53694e-05
8.40102e-05
7.31756e-05
0.000154635
0.000137784
0.000254666
0.000192961
0.000332176
0.000279347
0.000330293
0.000371927
0.000300804
0.000407141
0.000319554
0.000466667
0.000370043
0.000469064
0.000432298
0.000400255
0.000295287
0.000383977
0.00012003
0.00032332
4.10537e-05
0.000352612
5.29135e-05
0.000430606
0.00013053
0.00112139
0.00188388
0.000184636
0.000763539
0.000114143
0.000273281
0.000141066
0.000170442
8.52712e-05
4.72326e-05
0.00021274
5.3162e-05
5.76949e-05
7.05032e-05
8.14808e-05
6.77558e-05
5.33018e-05
6.6962e-05
5.34046e-05
7.24403e-05
5.43437e-05
5.56122e-05
4.76977e-05
7.08455e-05
4.42089e-05
7.38965e-05
5.42826e-05
8.60792e-05
7.57458e-05
8.33074e-05
5.10904e-05
8.50544e-05
3.41923e-05
7.21426e-05
4.91431e-05
8.26963e-05
7.13264e-05
6.60082e-05
6.66533e-05
5.8048e-05
8.42407e-05
9.89584e-05
9.54133e-05
0.000163014
0.000120933
0.000244159
0.000199517
0.000307003
0.000307622
0.000313925
0.000353256
0.000281757
0.000377951
0.000256302
0.000502132
0.000307456
0.000559384
0.000330354
0.000514461
0.000257989
0.000417093
0.000111257
0.000318472
3.37549e-05
0.000318216
5.24343e-05
0.00043024
0.000134022
0.00118361
0.00235469
0.00112858
0.000177549
0.000752116
0.000102423
0.000548888
1.93312e-05
0.000379139
7.6138e-05
0.000218759
0.000145966
0.00014314
7.54885e-05
0.000110063
6.12961e-05
0.000118899
4.2536e-05
0.000106833
5.30555e-05
7.52919e-05
4.00144e-05
0.000109191
3.51577e-05
8.83258e-05
2.84858e-05
7.72431e-05
2.43705e-05
9.38112e-05
2.6876e-05
9.05906e-05
2.26081e-05
7.3577e-05
2.33553e-05
6.53448e-05
4.04281e-05
5.64734e-05
5.05406e-05
4.89275e-05
6.08269e-05
5.93038e-05
5.38915e-05
8.1529e-05
7.61702e-05
0.000154729
0.000146476
0.000256304
0.000211203
0.000340066
0.000307848
0.000341866
0.000392747
0.000316401
0.000436072
0.000320491
0.000487666
0.000369572
0.000472149
0.000446372
0.000387249
0.000289492
0.000367233
0.000114844
0.000311249
4.03802e-05
0.000336777
6.55689e-05
0.000442446
0.000126343
0.00118816
0.0020351
0.000161964
0.000736403
9.68822e-05
0.000281301
0.000139694
0.000166156
9.16786e-05
4.53879e-05
0.000244105
6.77999e-05
6.75458e-05
9.57633e-05
8.12014e-05
6.40112e-05
6.26154e-05
5.19507e-05
6.4671e-05
5.49537e-05
4.76084e-05
6.47721e-05
5.67507e-05
5.74622e-05
4.56355e-05
7.21967e-05
4.99517e-05
7.48251e-05
5.53054e-05
7.34732e-05
6.64197e-05
8.31286e-05
4.11639e-05
9.02532e-05
3.22813e-05
7.45021e-05
4.63528e-05
8.10939e-05
6.68951e-05
6.17396e-05
6.07277e-05
4.86638e-05
7.81713e-05
8.667e-05
9.41839e-05
0.000160208
0.000130689
0.000250386
0.000220374
0.000314332
0.000333307
0.000327072