/*--------------------------------*- C++ -*----------------------------------*\
| =========                 |                                                 |
| \\      /  F ield         | OpenFOAM: The Open Source CFD Toolbox           |
|  \\    /   O peration     | Version:  2206                                  |
|   \\  /    A nd           | Website:  www.openfoam.com                      |
|    \\/     M anipulation  |                                                 |
\*---------------------------------------------------------------------------*/
FoamFile
{
    version     2.0;
    format      ascii;
    arch        "LSB;label=32;scalar=64";
    class       volScalarField;
    location    "160";
    object      rho;
}
// * * * * * * * * * * * * * * * * * * * * * * * * * * * * * * * * * * * * * //

dimensions      [1 -3 0 0 0 0 0];

internalField   nonuniform List<scalar> 
93840
(
2.08027
0.612334
1.94903
1.33199
0.701821
1.70511
0.752331
1.14473
0.735872
1.56649
1.16468
1.0276
1.13737
0.813763
1.41559
0.978619
1.10866
1.02931
1.20384
0.856763
1.28617
1.05827
0.989935
1.08409
0.849138
1.19163
0.925406
1.21046
0.96388
1.06745
1.00899
1.1423
0.921351
1.11697
0.979435
1.18012
1.06844
0.948388
1.06832
0.957411
1.14676
0.99011
1.14889
0.998923
1.15231
0.969187
1.07589
0.975616
1.11717
0.918804
1.12573
1.01243
1.09904
1.04385
1.13221
1.06146
0.976368
1.0561
0.915025
1.11948
1.0205
1.07964
1.07141
1.10525
1.06144
1.11382
0.969359
1.0333
0.963216
1.09065
0.965728
1.08908
1.0178
1.07112
1.04855
1.08966
1.11379
1.09185
1.05109
0.995668
1.056
1.00312
1.10022
1.02426
1.04925
1.09178
1.04625
1.11009
1.0732
1.11648
1.05852
0.960444
1.02499
0.931248
1.08458
0.943214
1.04576
1.04534
1.05532
1.05118
1.07382
1.07817
1.06307
1.14211
1.02016
1.06834
0.947726
1.06222
0.954556
1.08752
1.03968
1.04432
1.08699
1.03566
1.10989
1.03187
1.11299
1.0772
1.13633
0.981315
0.958513
1.04584
0.977111
1.10018
0.962177
1.02383
1.03764
1.02858
1.04795
1.0654
1.05237
1.08044
1.0828
1.06824
1.12718
0.944769
1.07549
0.932134
1.02818
0.938725
1.06219
1.04393
1.02941
1.0713
1.04816
1.09527
1.03661
1.11525
1.04329
1.08637
1.08413
1.11848
0.915591
0.956959
1.06306
0.969101
1.09486
0.990716
1.01415
1.04347
1.03334
1.04006
1.02624
1.04646
1.06927
1.04806
1.09216
1.08161
1.06169
1.10887
0.895882
1.0856
0.935592
1.07648
0.993263
1.05572
1.05059
1.03038
1.0506
1.03389
1.061
1.04735
1.08368
1.0365
1.07224
1.02386
1.07214
1.07532
1.10092
0.880804
0.973152
1.0749
0.932757
1.05823
0.998285
1.00932
1.05127
1.03418
1.03796
1.02614
1.03421
1.02972
1.04001
1.07454
1.06671
1.08435
1.0653
1.04876
1.09242
0.866884
1.07313
0.94858
1.11647
1.01133
1.0438
1.05855
1.04092
1.04909
1.03157
1.04607
1.03442
1.06528
1.04815
1.0876
1.04014
1.06143
1.01944
1.05742
1.05393
1.08387
0.862302
0.977425
1.07701
0.932896
1.04179
1.01078
1.00633
1.04741
1.03888
1.03875
1.03414
1.03528
1.02887
1.0336
1.03196
1.03783
1.07178
1.05613
1.07663
1.05208
1.04554
1.07602
0.851166
1.05622
0.956381
1.09779
1.01723
1.03236
1.06061
1.04979
1.05088
1.03998
1.05394
1.03076
1.04714
1.0372
1.05332
1.05156
1.06064
1.04831
1.05346
1.03585
1.04592
1.03831
1.06873
0.856117
0.958215
1.06981
0.912193
1.03383
1.02379
1.00895
1.04107
1.03268
1.04414
1.03304
1.03791
1.03547
1.03864
1.03005
1.03216
1.03443
1.05523
1.06645
1.05101
1.04992
1.04018
1.03232
1.06179
0.846791
1.07205
0.949045
1.12352
1.03654
1.02354
1.05821
1.04718
1.05281
1.04596
1.04687
1.03382
1.04657
1.03047
1.04761
1.04163
1.04179
1.05034
1.0411
1.0379
1.04625
1.03944
1.03493
1.02636
1.04966
0.829441
0.958621
1.07331
0.916061
1.01793
1.02876
1.01441
1.02698
1.02469
1.03847
1.02992
1.04304
1.0368
1.03664
1.0304
1.03417
1.02657
1.0323
1.03477
1.05191
1.07511
1.04775
1.03954
1.02943
1.01929
1.03443
0.80602
1.07985
0.941702
1.11959
1.04924
1.02442
1.04804
1.03935
1.04568
1.04081
1.04148
1.03916
1.04567
1.03566
1.045
1.0245
1.03814
1.03448
1.04061
1.04163
1.04238
1.0275
1.0412
1.03641
1.02378
1.01112
1.06726
0.837345
0.985333
1.07828
0.93092
1.00394
1.02553
1.01513
1.02044
1.01829
1.02815
1.02421
1.03865
1.02411
1.03926
1.03396
1.0349
1.02801
1.02956
1.02513
1.02906
1.03541
1.04193
1.06381
1.04187
1.03282
1.0194
1.00615
1.05797
0.833199
1.07146
0.951454
1.10246
1.0589
1.01999
1.04605
1.02999
1.03592
1.0373
1.05339
1.04252
1.04688
1.03795
1.04311
1.03194
1.0408
1.0251
1.03127
1.0363
1.03723
1.03824
1.04181
1.03728
1.03932
1.0298
1.01679
1.00535
1.05235
0.856665
1.00394
1.06594
0.942489
0.99191
1.02064
1.01727
1.02648
1.01743
1.02362
1.02202
1.0275
1.02214
1.03512
1.02718
1.03464
1.03244
1.03199
1.02718
1.02954
1.02162
1.0246
1.03715
1.03987
1.04815
1.03697
1.02741
1.01543
1.00224
1.04752
0.845613
1.05926
0.947042
1.08551
1.0661
1.01462
1.04035
1.01784
1.02879
1.02034
1.04386
1.03267
1.04491
1.03887
1.04184
1.03594
1.0404
1.02957
1.03371
1.02346
1.03362
1.0373
1.03737
1.03645
1.03881
1.04072
1.03469
1.02567
1.01616
1.00111
1.04397
0.865632
1.00446
1.06516
0.963662
0.987355
1.02064
1.01647
1.03029
1.02712
1.0209
1.02469
1.02074
1.01715
1.03661
1.02153
1.0304
1.02942
1.0318
1.02972
1.03093
1.02944
1.02996
1.01932
1.0243
1.03427
1.04039
1.04204
1.03234
1.02399
1.01452
0.997193
1.04154
0.852285
1.04955
0.943748
1.06385
1.06039
1.0049
1.03235
1.00388
1.01947
1.01099
1.03428
1.01722
1.03973
1.0298
1.03557
1.041
1.0413
1.03201
1.04385
1.03149
1.02696
1.02614
1.02985
1.03719
1.03107
1.03074
1.03473
1.03976
1.02971
1.02243
1.01375
0.996164
1.03979
0.872059
0.991873
1.06943
0.979016
0.985506
1.01913
1.01485
1.02725
1.02625
1.02966
1.02756
1.02898
1.02207
1.02175
1.01763
1.02569
1.02312
1.02807
1.02762
1.0284
1.03039
1.02704
1.02838
1.02697
1.01805
1.0225
1.02995
1.03679
1.03769
1.0273
1.02111
1.0109
0.994351
1.03895
0.858761
1.05035
0.95957
1.05002
1.05071
1.00138
1.02824
1.00684
1.00876
1.00655
1.02945
1.0176
1.02476
1.02005
1.03269
1.0339
1.03163
1.0426
1.04078
1.02883
1.04048
1.03214
1.02674
1.02542
1.03021
1.03257
1.02883
1.0331
1.03058
1.03696
1.02508
1.01907
1.01261
0.994967
1.03862
0.878569
0.979784
1.06166
0.985853
0.978821
1.01627
1.01114
1.02431
1.01688
1.02866
1.03016
1.03291
1.03067
1.02391
1.02701
1.02389
1.01589
1.02764
1.02193
1.0272
1.02691
1.02797
1.02931
1.02753
1.0237
1.02482
1.01554
1.02185
1.03052
1.0366
1.03483
1.0231
1.01757
1.0083
0.992788
1.03854
0.864298
1.06081
0.968286
1.04366
1.04294
0.996863
1.02773
1.00942
1.0083
1.00743
1.01673
1.01098
1.01728
1.01167
1.02265
1.02547
1.02475
1.04309
1.03027
1.04401
1.03523
1.03031
1.03347
1.03097
1.02707
1.02236
1.02972
1.03258
1.01163
1.02819
1.02837
1.03432
1.02093
1.0159
1.01187
0.994312
1.03855
0.882643
0.987304
1.05956
0.996473
0.968298
1.0119
1.00256
1.01549
1.01318
1.0226
1.02189
1.0195
1.03165
1.03117
1.03417
1.01731
1.02633
1.02714
1.01316
1.02769
1.02232
1.0261
1.02858
1.0268
1.02671
1.025
1.0189
1.02314
1.01845
1.03894
1.02783
1.0338
1.0321
1.01872
1.01451
1.00795
0.992357
1.03856
0.867721
1.06051
0.989846
1.03947
1.04135
1.00033
1.03071
1.01487
1.01276
1.02292
1.00312
1.01493
1.01037
1.01734
1.01777
1.01215
1.02816
1.02764
1.02197
1.04704
1.02822
1.04271
1.03282
1.03122
1.03194
1.0286
1.02662
1.02077
1.02904
1.03355
1.01399
1.0278
1.02763
1.03121
1.01615
1.01304
1.00988
0.994191
1.03878
0.886588
1.00622
1.05424
1.00011
0.966913
1.01172
1.00601
1.01112
1.01031
1.02087
1.01511
1.02175
1.02463
1.02577
1.02519
1.01944
1.03259
1.01649
1.02482
1.02794
1.01375
1.03286
1.02186
1.02632
1.02851
1.02711
1.0269
1.02529
1.01711
1.02502
1.01941
1.0364
1.0246
1.02954
1.02964
1.01807
1.01113
1.00683
0.992682
1.03926
0.872983
1.05453
1.00354
1.04035
1.04479
1.00544
1.04251
1.01977
1.01484
1.03278
1.00962
1.02764
1.0075
1.01925
1.00974
1.017
1.01127
1.0137
1.03055
1.02711
1.02725
1.04444
1.02621
1.04532
1.0347
1.0291
1.03393
1.02847
1.02479
1.02329
1.02683
1.03228
1.01754
1.03038
1.02469
1.02839
1.01411
1.00925
1.00938
0.994915
1.03973
0.890893
1.01369
1.04802
1.00229
0.972346
1.00986
1.01361
1.00806
1.01256
1.01744
1.0166
1.02329
1.01909
1.02748
1.01803
1.02433
1.02708
1.01864
1.03583
1.01616
1.0207
1.02868
1.02188
1.03174
1.02495
1.02557
1.02801
1.02575
1.02268
1.02328
1.01863
1.02516
1.02114
1.03685
1.02246
1.02837
1.02668
1.01592
1.00734
1.00837
0.994298
1.03985
0.875333
1.04921
1.01774
1.04401
1.0493
1.01532
1.05081
1.01885
1.01482
1.02583
1.00688
1.02932
1.0115
1.02488
1.0031
1.02384
1.00555
1.0143
1.01958
1.01115
1.02604
1.03037
1.02732
1.03677
1.02814
1.04059
1.04026
1.027
1.03393
1.02804
1.02418
1.025
1.02869
1.03212
1.01764
1.02796
1.02032
1.02488
1.01427
1.00686
1.00647
0.995598
1.03996
0.893472
1.01624
1.04035
1.01144
0.981748
1.01272
1.01993
1.00125
1.01396
1.00547
1.01511
1.01694
1.01724
1.0239
1.01587
1.02012
1.02286
1.02224
1.02511
1.02137
1.03335
1.0199
1.02492
1.02531
1.02887
1.02331
1.02884
1.02637
1.02811
1.02435
1.01889
1.02335
1.01935
1.02734
1.02244
1.03447
1.01954
1.0265
1.02328
1.0172
1.00368
1.00917
0.994694
1.03979
0.877542
1.04096
1.01657
1.04084
1.0459
1.01775
1.05252
1.01091
1.02122
1.02268
1.01402
1.031
1.01698
1.03026
1.00652
1.03251
1.00846
1.02372
1.00945
1.01493
1.01861
1.01208
1.02465
1.02756
1.02802
1.03219
1.03205
1.03243
1.03679
1.02611
1.0346
1.02579
1.02633
1.02632
1.02928
1.03133
1.01859
1.02749
1.01875
1.02225
1.01762
1.00611
1.00572
0.996264
1.03945
0.893478
1.00835
1.02457
1.02514
0.986736
1.01195
1.02069
0.995685
1.01683
1.00152
1.01184
1.0081
1.01929
1.01194
1.01884
1.02221
1.01355
1.01186
1.02411
1.02313
1.02517
1.01984
1.03554
1.02092
1.02723
1.02408
1.02983
1.02982
1.02797
1.03273
1.03049
1.02578
1.02342
1.02579
1.02068
1.02808
1.02249
1.02987
1.01906
1.02431
1.0205
1.01822
1.00448
1.01269
0.995127
1.03878
0.876946
1.03809
1.01234
1.04349
1.03542
1.01543
1.04792
1.00892
1.02297
1.01911
1.01056
1.01726
1.01085
1.02984
1.01305
1.03534
1.00301
1.02722
1.008
1.02044
1.01068
1.01582
1.01681
1.01129
1.02336
1.02714
1.02745
1.02677
1.02905
1.03863
1.02972
1.03031
1.03225
1.02862
1.02854
1.0287
1.02803
1.03187
1.01898
1.02664
1.01759
1.02124
1.01836
1.00406
1.01237
0.995682
1.03816
0.894067
1.00422
1.01972
1.02519
0.979733
1.0088
1.01847
0.992717
1.01658
0.995203
1.01962
1.00011
1.01414
1.00855
1.0181
1.01826
1.01771
1.02359
1.01488
1.01641
1.02529
1.01777
1.02748
1.02068
1.03003
1.02054
1.03083
1.02433
1.02139
1.02481
1.02755
1.02511
1.03118
1.02736
1.02551
1.02551
1.02131
1.02477
1.01983
1.03007
1.01909
1.02569
1.01827
1.01972
1.00121
1.01291
0.994663
1.03768
0.878742
1.03215
1.01094
1.02894
1.02755
1.01575
1.04255
1.00723
1.02316
1.01402
1.01348
1.01248
1.01313
1.02021
1.00896
1.03633
1.01203
1.03549
1.00604
1.02625
1.00974
1.02058
1.01108
1.01507
1.02141
1.01346
1.01884
1.02429
1.02383
1.03503
1.03234
1.03708
1.03828
1.03167
1.02912
1.03018
1.0253
1.02705
1.02633
1.03167
1.01939
1.02348
1.01988
1.01928
1.02016
1.00169
1.01437
0.996157
1.03758
0.897422
0.996116
1.01567
1.02717
0.980625
1.01036
1.01153
0.992001
1.01361
0.988142
1.01823
0.995473
1.02071
0.9986
1.01505
1.01553
1.01729
1.02203
1.01579
1.02246
1.01575
1.01922
1.02786
1.01787
1.02649
1.01941
1.02494
1.0191
1.02937
1.02374
1.02554
1.0252
1.02445
1.02171
1.03206
1.02606
1.02481
1.02413
1.02209
1.0258
1.02294
1.02681
1.01935
1.0259
1.01587
1.01808
1.00314
1.0101
0.995607
1.03736
0.882473
1.03458
0.988703
1.02495
1.01685
1.01247
1.03505
1.00558
1.02413
1.01557
1.01849
1.01266
1.0162
1.01688
1.01427
1.0259
1.01406
1.03333
1.01211
1.03642
1.00684
1.02841
1.00807
1.02002
1.01595
1.01344
1.01783
1.02348
1.02077
1.02091
1.02133
1.03479
1.03112
1.03371
1.03335
1.03345
1.02652
1.02973
1.02394
1.02626
1.02998
1.0261
1.01925
1.0244
1.02301
1.01756
1.02019
1.00481
1.01232
0.997822
1.03702
0.899125
0.994241
1.04593
1.01772
0.976616
1.00989
1.00728
0.989568
1.01105
0.990404
1.01484
0.994937
1.022
0.996068
1.01705
1.00097
1.01509
1.01452
1.01814
1.01802
1.0183
1.023
1.01537
1.02187
1.02466
1.01886
1.02798
1.02016
1.02331
1.01807
1.02866
1.02553
1.02557
1.02578
1.02349
1.02211
1.03284
1.0282
1.02492
1.02402
1.02009
1.02668
1.02926
1.02651
1.01982
1.02973
1.01356
1.02084
1.00388
1.00758
0.995809
1.0363
0.883643
1.03896
0.990636
1.00954
1.01238
1.00933
1.03299
1.00776
1.0266
1.02072
1.02126
1.01671
1.01465
1.00961
1.01767
1.01317
1.01226
1.0304
1.01556
1.03405
1.01469
1.03957
1.0132
1.02841
1.01141
1.02246
1.01965
1.01464
1.01683
1.02574
1.02104
1.0247
1.02077
1.03169
1.02867
1.03565
1.02784
1.03257
1.02761
1.02746
1.01854
1.02451
1.02727
1.02651
1.01752
1.02542
1.02442
1.01428
1.02069
1.00422
1.01035
0.995608
1.03557
0.901161
0.986172
1.06273
1.01163
0.977837
1.00792
1.00516
0.993263
1.01232
0.997955
1.01565
1.00653
1.01526
0.996102
1.01696
0.996656
1.02
1.00303
1.02155
1.01264
1.01976
1.02157
1.01961
1.02688
1.01514
1.01912
1.02533
1.02128
1.02803
1.01979
1.02661
1.0176
1.02762
1.02564
1.02432
1.02417
1.02606
1.02292
1.03249
1.0279
1.02537
1.02177
1.02054
1.03018
1.0233
1.03048
1.02016
1.0328
1.01268
1.01731
1.00247
1.00895
0.994758
1.03484
0.885708
1.05471
0.998497
1.00826
1.00762
1.00656
1.03216
1.01342
1.02957
1.02422
1.02062
1.01622
1.01436
1.01825
1.01927
1.01294
1.01667
1.01685
1.0123
1.03419
1.01737
1.04054
1.01441
1.03518
1.01205
1.03065
1.01161
1.01899
1.01645
1.01963
1.0173
1.02529
1.02144
1.02897
1.02397
1.03436
1.02907
1.03461
1.02593
1.03245
1.0257
1.02663
1.01895
1.02572
1.03016
1.02414
1.01623
1.02267
1.0267
1.01577
1.01852
1.00521
1.00616
0.995716
1.03429
0.904496
0.990158
1.0613
0.996252
0.97437
1.00532
1.00774
0.998733
1.01555
1.00298
1.02008
1.01656
1.00107
0.999462
1.01566
0.997907
1.01332
0.998632
1.02103
1.0012
1.01854
1.02205
1.02103
1.01713
1.01803
1.02886
1.01362
1.01999
1.02566
1.02141
1.02156
1.02229
1.02756
1.0201
1.03035
1.02007
1.02531
1.02474
1.02762
1.0272
1.03043
1.02704
1.02395
1.02131
1.0217
1.03305
1.0259
1.03188
1.02229
1.03176
1.01309
1.01694
1.0063
1.00476
0.995015
1.0335
0.889053
1.05991
1.00519
0.992287
1.00625
1.00459
1.03025
1.01794
1.02996
1.02313
1.02385
1.01654
1.01727
1.0229
1.01076
1.01628
1.01667
1.01809
1.01515
1.02027
1.01459
1.03071
1.01436
1.03891
1.01783
1.03822
1.01101
1.02856
1.01361
1.02242
1.01548
1.01779
1.01819
1.02219
1.02464
1.026
1.02433
1.0354
1.02865
1.03629
1.02429
1.03312
1.02602
1.02514
1.02041
1.02724
1.02808
1.01978
1.01422
1.02381
1.02615
1.01591
1.01549
1.0055
1.00578
0.994855
1.03281
0.90789
1.00231
1.0616
0.996497
0.981365
1.00696
1.0108
1.0067
1.01951
1.00575
1.02232
1.01004
1.02264
1.00923
1.01646
1.00837
1.01549
0.996366
1.01388
0.998778
1.01998
1.00473
1.0221
1.02202
1.0231
1.02138
1.01854
1.02933
1.01563
1.01477
1.02079
1.0186
1.02728
1.02381
1.02938
1.02148
1.02943
1.02516
1.02494
1.02571
1.02814
1.03211
1.03024
1.02904
1.02433
1.02204
1.02193
1.03456
1.0281
1.02913
1.0211
1.02718
1.01652
1.01493
1.00505
1.0053
0.994695
1.03201
0.893146
1.05117
1.01952
0.990279
1.00512
1.00266
1.02747
1.02061
1.03037
1.02395
1.02203
1.0255
1.02618
1.0121
1.02174
1.01772
1.00857
1.01882
1.01563
1.01679
1.01482
1.01943
1.01375
1.03115
1.01582
1.03167
1.01601
1.03445
1.00911
1.0287
1.01427
1.019
1.01832
1.02191
1.02056
1.0202
1.0235
1.0251
1.02334
1.03699
1.02771
1.03808
1.02493
1.03175
1.02487
1.02708
1.02123
1.02786
1.02791
1.01842
1.01696
1.02588
1.02546
1.01793
1.01354
1.00454
1.00794
0.993476
1.03118
0.910956
1.00019
1.05695
0.99421
0.98647
1.00814
1.01157
1.01178
1.01809
1.00671
1.01998
1.01533
1.02303
1.01028
1.02652
1.00716
1.01489
1.00633
1.01828
1.00282
1.01217
0.998364
1.01971
1.00451
1.02136
1.02108
1.02987
1.02413
1.02266
1.0267
1.01656
1.01569
1.02085
1.01868
1.02242
1.02351
1.03022
1.01962
1.03029
1.01928
1.02685
1.02876
1.02756
1.02925
1.02968
1.02974
1.02442
1.0242
1.02321
1.03522
1.02738
1.02681
1.02053
1.02397
1.01645
1.01224
1.00208
1.00552
0.994631
1.03023
0.896355
1.05539
1.01822
0.983675
1.00378
1.00282
1.02319
1.02188
1.02625
1.02378
1.02095
1.02372
1.0238
1.02339
1.02179
1.01427
1.01947
1.01927
1.01024
1.01546
1.01162
1.01892
1.01658
1.02082
1.01595
1.03015
1.01637
1.03318
1.01997
1.03497
1.01235
1.02493
1.01408
1.02175
1.01818
1.01923
1.0216
1.02124
1.02531
1.02572
1.02858
1.03781
1.02766
1.03327
1.02531
1.03074
1.02483
1.02725
1.02173
1.02715
1.02606
1.01988
1.01782
1.02415
1.02198
1.01785
1.01238
1.0016
1.0049
0.992408
1.02961
0.911531
1.00281
1.06138
1.00188
0.996428
1.01238
1.01173
1.01913
1.0168
1.01161
1.01714
1.01539
1.0184
1.00868
1.02819
1.01139
1.02892
1.00562
1.01944
1.01021
1.01269
1.00218
1.0116
1.00213
1.01881
1.00543
1.01812
1.02068
1.03197
1.02121
1.0229
1.02187
1.02379
1.01384
1.02191
1.02123
1.02746
1.02387
1.03008
1.0189
1.03587
1.01712
1.02654
1.02998
1.02833
1.02151
1.03005
1.03044
1.02425
1.02549
1.02487
1.03457
1.02768
1.02713
1.02106
1.02006
1.01595
1.01182
0.999898
1.00702
0.994886
1.02911
0.894765
1.05502
1.0347
0.983146
1.0076
1.00263
1.02007
1.02225
1.01916
1.02504
1.02043
1.02402
1.01815
1.02333
1.01754
1.02074
1.01803
1.01776
1.01697
1.01501
1.01205
1.01884
1.00832
1.01959
1.01534
1.02049
1.01609
1.03189
1.01469
1.03249
1.01949
1.03573
1.01409
1.02339
1.01225
1.02028
1.01498
1.01911
1.01968
1.02123
1.02388
1.02509
1.02668
1.03879
1.02606
1.0311
1.03061
1.03145
1.02695
1.02783
1.02254
1.02812
1.0261
1.01944
1.02104
1.02356
1.01776
1.01568
1.01199
1.00066
1.00577
0.992525
1.02904
0.910924
1.00397
1.05704
0.997583
0.998104
1.01445
1.01216
1.02249
1.01513
1.01842
1.0147
1.0134
1.01594
1.01064
1.02637
1.00964
1.02894
1.0102
1.02668
1.00695
1.01819
1.0091
1.01349
1.00457
1.01401
1.0043
1.01639
1.00835
1.01922
1.02223
1.03239
1.01983
1.02156
1.01856
1.02569
1.01662
1.023
1.02312
1.02434
1.02287
1.03176
1.02191
1.03465
1.01843
1.02743
1.03228
1.02816
1.0267
1.03238
1.02949
1.02628
1.02772
1.02589
1.03405
1.02623
1.02619
1.0206
1.01971
1.01474
1.01221
1.00015
1.00405
0.993702
1.02876
0.896097
1.05378
1.04423
0.992794
1.01134
1.00072
1.01394
1.02124
1.01151
1.02956
1.01508
1.0311
1.00586
1.02484
1.01057
1.0242
1.01815
1.02161
1.01812
1.02154
1.01938
1.0155
1.01085
1.01338
1.01295
1.01906
1.01406
1.02468
1.01187
1.03505
1.01814
1.03395
1.02193
1.02989
1.01671
1.02242
1.01363
1.02305
1.01756
1.01788
1.02098
1.02313
1.02254
1.02743
1.02823
1.04048
1.02561
1.03425
1.02726
1.03327
1.02396
1.02919
1.02361
1.03081
1.0268
1.02148
1.02007
1.02287
1.01508
1.01364
1.01305
0.998465
1.00525
0.991186
1.02882
0.912329
1.00276
1.0528
0.998157
0.996542
1.01361
1.01088
1.02402
1.01329
1.02609
1.01472
1.01578
1.01824
1.01592
1.02324
1.00867
1.0255
1.01125
1.02932
1.00688
1.02406
1.00955
1.01987
1.00656
1.01028
1.0079
1.00969
1.00542
1.01835
1.0125
1.02046
1.01609
1.0313
1.01864
1.02916
1.01814
1.02271
1.01263
1.02345
1.01973
1.02231
1.02168
1.02771
1.02092
1.03363
1.01965
1.02605
1.03055
1.02881
1.02335
1.0336
1.02961
1.02746
1.02853
1.02556
1.0345
1.02552
1.02597
1.02117
1.01836
1.01243
1.01376
1
1.00458
0.99577
1.0285
0.896079
1.05858
1.05122
0.992829
1.01085
1.00074
1.01052
1.01959
1.0054
1.03389
1.01109
1.03601
0.999357
1.02617
1.0053
1.02697
1.01161
1.0211
1.01715
1.02039
1.0205
1.01999
1.01742
1.01667
1.01302
1.01819
1.00859
1.02404
1.01005
1.0213
1.0113
1.03251
1.02225
1.03035
1.02073
1.02785
1.01665
1.02431
1.01346
1.01892
1.01842
1.01812
1.02068
1.02654
1.0218
1.02813
1.02694
1.03893
1.02506
1.03274
1.03308
1.03263
1.0238
1.03149
1.02214
1.03125
1.02683
1.025
1.01877
1.02007
1.01454
1.01161
1.0118
0.997085
1.0075
0.989763
1.02829
0.914838
1.0006
1.04766
1.00117
1.00017
1.01488
1.01135
1.02406
1.01182
1.0324
1.01578
1.01739
1.02193
1.01291
1.01892
1.01018
1.02217
1.01102
1.02476
1.01064
1.03075
1.00498
1.02287
1.0115
1.01926
1.00475
1.01226
1.0088
1.01204
1.01015
1.01805
1.01214
1.02317
1.02307
1.03039
1.01985
1.0283
1.01786
1.02568
1.0172
1.02225
1.01502
1.02384
1.02103
1.02526
1.02173
1.03121
1.02063
1.02501
1.03277
1.0266
1.01971
1.03282
1.03004
1.02911
1.02836
1.02603
1.03401
1.02385
1.02413
1.02138
1.01832
1.01151
1.00983
0.998942
1.00409
0.993768
1.0279
0.900427
1.06386
1.05216
0.987187
1.00953
0.999733
1.00604
1.0164
0.99924
1.03201
1.01064
1.03615
1.0021
1.02864
1.00441
1.02964
1.00828
1.02478
1.01249
1.02183
1.01797
1.02078
1.02387
1.02189
1.01776
1.01465
1.01066
1.01496
1.01032
1.02384
1.0113
1.02326
1.0154
1.03134
1.01566
1.033
1.02221
1.02934
1.01493
1.02313
1.0124
1.02312
1.01966
1.02057
1.02132
1.02271
1.01922
1.02864
1.02812
1.038
1.02574
1.03523
1.03146
1.03371
1.02319
1.03126
1.02118
1.03135
1.0269
1.02723
1.02066
1.01869
1.0145
1.01038
1.011
0.997299
1.00792
0.991022
1.02752
0.918111
1.00599
1.04604
1.01095
1.00566
1.01793
1.01022
1.02402
1.01059
1.03476
1.01923
1.01926
1.01958
1.01847
1.02252
1.01468
1.01839
1.00972
1.01881
1.01105
1.02517
1.00852
1.02974
1.00566
1.02189
1.01076
1.02221
1.00474
1.01467
1.00728
1.01191
1.00854
1.01855
1.0144
1.02134
1.02632
1.02852
1.01722
1.0305
1.0197
1.02494
1.01618
1.02672
1.01616
1.02634
1.0211
1.02881
1.02176
1.03066
1.02198
1.02729
1.03087
1.02836
1.01979
1.033
1.02984
1.02954
1.0271
1.02621
1.02836
1.02269
1.02122
1.02013
1.01653
1.00891
1.01124
0.995575
1.00736
0.993895
1.02675
0.903699
1.0621
1.0494
0.989369
1.00936
1.00019
1.00054
1.01227
0.994621
1.02848
1.01264
1.03644
1.00086
1.02925
1.0043
1.02248
1.00662
1.02266
1.00808
1.02216
1.01128
1.02327
1.01748
1.02057
1.02257
1.02269
1.01597
1.01605
1.00983
1.01776
1.01144
1.02106
1.01024
1.02088
1.01348
1.03256
1.0164
1.03
1.01922
1.02919
1.01427
1.02446
1.01665
1.02216
1.02
1.02064
1.01718
1.02507
1.01957
1.0339
1.02899
1.03974
1.02665
1.03951
1.03079
1.03434
1.02543
1.02929
1.02066
1.03171
1.03124
1.02306
1.02013
1.01877
1.01343
1.00723
1.01009
0.996802
1.01077
0.991598
1.026
0.9204
1.01189
1.04177
1.01227
1.00854
1.01867
1.00943
1.02267
1.00916
1.03434
1.02194
1.01985
1.02215
1.02203
1.01767
1.02101
1.01979
1.01697
1.02118
1.0147
1.01936
1.00903
1.02432
1.00897
1.0288
1.00736
1.02229
1.00908
1.02225
1.00473
1.01403
1.00622
1.01488
1.00718
1.02011
1.01425
1.0235
1.02174
1.02983
1.01799
1.02621
1.01533
1.02655
1.01801
1.02913
1.01681
1.02415
1.0231
1.02811
1.02066
1.03055
1.02206
1.02709
1.03098
1.02834
1.0199
1.03169
1.03
1.02892
1.02624
1.02693
1.03149
1.02078
1.01978
1.0177
1.016
1.00798
1.00943
0.99342
1.00669
0.993809
1.02521
0.904096
1.05989
1.04246
0.995607
1.01301
1.00202
0.997964
1.00891
0.99408
1.02524
1.0154
1.03175
1.00598
1.02382
1.0061
1.02055
1.00613
1.01886
1.0047
1.01939
1.00717
1.02434
1.01
1.02297
1.01793
1.02052
1.01942
1.02303
1.01647
1.01538
1.0073
1.01946
1.00969
1.02152
1.01263
1.02203
1.0113
1.03164
1.01899
1.03074
1.01996
1.03145
1.01526
1.02349
1.01533
1.02507
1.02018
1.02127
1.01825
1.02534
1.02253
1.03381
1.02983
1.0401
1.02693
1.04036
1.03202
1.03535
1.02634
1.02935
1.0194
1.03275
1.02702
1.02789
1.01945
1.01782
1.01332
1.00796
1.00884
0.994917
1.01063
0.99214
1.02466
0.914827
1.01285
1.04423
1.01253
1.0081
1.01823
1.00757
1.02029
1.01111
1.03319
1.0234
1.01748
1.0183
1.02436
1.01902
1.021
1.0183
1.01567
1.01899
1.01234
1.02032
1.0107
1.01829
1.00753
1.02334
1.01153
1.02395
1.0115
1.02202
1.01314
1.01818
1.00614
1.00964
1.00728
1.01448
1.00716
1.0193
1.01608
1.02687
1.02403
1.02816
1.0167
1.02862
1.0199
1.02641
1.01901
1.02845
1.02002
1.02534
1.02028
1.02905
1.02155
1.03096
1.02199
1.02614
1.03105
1.0272
1.02185
1.03276
1.03006
1.0292
1.02677
1.02711
1.03055
1.02062
1.01772
1.01659
1.01371
1.00896
1.00956
0.993829
1.00844
0.993821
1.0235
0.900652
1.05947
1.03971
0.99583
1.01145
1.00255
0.994978
1.00717
0.994596
1.02253
1.01642
1.02511
1.00878
1.02247
1.00379
1.02153
1.00834
1.02241
1.01216
1.01871
1.01024
1.01755
1.00943
1.02582
1.01108
1.02349
1.01839
1.02294
1.01635
1.02295
1.0138
1.01758
1.00749
1.02068
1.00876
1.02078
1.01059
1.02177
1.01104
1.03157
1.01297
1.03104
1.02102
1.02979
1.01353
1.02728
1.01489
1.02225
1.01854
1.02335
1.01807
1.02678
1.02275
1.03539
1.02988
1.03952
1.02765
1.0413
1.03092
1.03644
1.02685
1.02908
1.01991
1.03231
1.02883
1.02558
1.01565
1.01678
1.01255
1.00762
1.00971
0.995977
1.01254
0.991173
1.02006
0.895763
1.0166
1.04337
1.01132
1.01103
1.0178
1.00883
1.01998
1.01534
1.0313
1.02562
1.0153
1.0198
1.01979
1.01789
1.01371
1.01796
1.01688
1.01613
1.01466
1.01767
1.01245
1.02024
1.00766
1.017
1.00785
1.02012
1.01423
1.01988
1.01073
1.02103
1.01472
1.01669
1.00495
1.01137
1.00648
1.01848
1.00786
1.01648
1.01492
1.0248
1.0259
1.0302
1.01651
1.02904
1.01948
1.02753
1.02179
1.03048
1.02082
1.02624
1.02039
1.02919
1.02088
1.03182
1.02446
1.02656
1.02935
1.02794
1.02167
1.03413
1.03285
1.02905
1.02696
1.02661
1.02981
1.0209
1.01823
1.01502
1.0113
1.00658
1.01046
0.994307
1.00939
0.993146
1.01463
0.888419
1.05756
1.03831
0.998506
1.011
0.999384
0.992311
1.00352
0.994952
1.02138
1.01624
1.0193
1.00709
1.01922
0.999506
1.01837
1.00762
1.02154
1.00879
1.01982
1.0118
1.01826
1.01031
1.01919
1.01059
1.02535
1.01402
1.02156
1.01679
1.02201
1.01756
1.02095
1.01564
1.01672
1.00714
1.02096
1.00747
1.01868
1.01367
1.02253
1.01096
1.03268
1.0139
1.03044
1.01897
1.02962
1.01461
1.02565
1.01491
1.02479
1.02044
1.02473
1.0176
1.02529
1.02389
1.0284
1.03044
1.03835
1.02828
1.04257
1.03043
1.03646
1.02631
1.02985
1.02185
1.03398
1.02765
1.02465
1.01516
1.01599
1.00981
1.00603
1.01032
0.994351
1.00964
0.987438
1.02609
0.901247
1.02166
1.04116
1.01099
1.013
1.01922
1.01146
1.02006
1.01828
1.03113
1.02753
1.01202
1.02129
1.00947
1.01762
1.01569
1.01399
1.01513
1.01958
1.01556
1.01717
1.01493
1.01625
1.01181
1.01746
1.00874
1.01854
1.0091
1.01963
1.01575
1.02253
1.01303
1.02066
1.01443
1.01805
1.00369
1.01336
1.00869
1.01405
1.00721
1.0187
1.01345
1.0242
1.02427
1.03197
1.01815
1.028
1.02191
1.02525
1.02343
1.0294
1.01932
1.02742
1.02231
1.03125
1.02243
1.0375
1.0244
1.02707
1.02601
1.02864
1.02192
1.03331
1.02997
1.03012
1.02529
1.02674
1.03027
1.02114
1.01588
1.01258
1.0097
1.00499
1.01117
0.995342
1.00797
0.986038
1.02347
0.897283
1.05688
1.03654
1.00243
1.0068
0.994259
0.992759
1.00223
0.995488
1.01906
1.01581
1.01808
1.00634
1.01353
1.00398
1.01959
1.00228
1.01746
1.00293
1.02112
1.00988
1.01905
1.01072
1.01713
1.01146
1.0199
1.00825
1.0258
1.01383
1.02189
1.01552
1.02175
1.01508
1.02102
1.01342
1.01837
1.00608
1.02126
1.00774
1.02016
1.01027
1.0226
1.01572
1.03138
1.01722
1.02985
1.01792
1.03023
1.01616
1.02492
1.01648
1.02435
1.02224
1.02497
1.01915
1.02628
1.02113
1.03197
1.03342
1.03846
1.02842
1.04166
1.02988
1.03864
1.02702
1.03051
1.02097
1.03245
1.02545
1.02562
1.01439
1.01432
1.00686
1.00295
1.01062
0.994681
1.00892
0.986297
1.02211
0.907169
1.02442
1.04272
1.0138
1.01426
1.02087
1.014
1.01873
1.01992
1.03265
1.02571
1.00945
1.02363
1.00964
1.01739
1.00234
1.01713
1.01002
1.01696
1.01469
1.01783
1.01452
1.01759
1.01469
1.01541
1.01297
1.01639
1.00957
1.01786
1.0089
1.02093
1.01641
1.02089
1.01374
1.02123
1.01285
1.01969
1.00516
1.01169
1.00747
1.01622
1.01078
1.01655
1.01501
1.02558
1.02263
1.03149
1.01798
1.02895
1.02434
1.02592
1.02259
1.02972
1.02058
1.02765
1.02204
1.03197
1.02384
1.03604
1.02499
1.02836
1.02525
1.02846
1.02104
1.03478
1.02885
1.02834
1.02663
1.02761
1.03263
1.0219
1.01623
1.01063
1.00924
1.00473
1.01038
0.996767
1.00664
0.984044
1.01993
0.897708
1.05658
1.03459
1.00277
1.00776
0.992584
0.994919
1.0028
0.995862
1.01921
1.01535
1.0239
1.0079
1.00803
0.999948
1.01428
1.00369
1.01848
1.00596
1.01782
1.00917
1.01856
1.013
1.01972
1.01244
1.01563
1.01142
1.0197
1.00788
1.02602
1.01354
1.02177
1.01576
1.02043
1.01793
1.02078
1.01385
1.01844
1.00552
1.02245
1.00857
1.01818
1.00975
1.02391
1.01291
1.03085
1.01961
1.02752
1.01819
1.03093
1.01455
1.0253
1.01963
1.02346
1.0217
1.0247
1.0216
1.02632
1.02431
1.03211
1.03313
1.03907
1.02892
1.04324
1.03014
1.04083
1.0258
1.03087
1.02289
1.03372
1.02677
1.02474
1.01326
1.01314
1.00661
1.00393
1.00984
0.996745
1.00696
0.983355
1.01759
0.905744
1.03222
1.04649
1.01842
1.01327
1.02137
1.01487
1.01749
1.02072
1.03378
1.02389
1.01523
1.01992
1.0079
1.02476
1.00582
1.02113
1.00092
1.01667
1.00848
1.01624
1.01295
1.01718
1.01251
1.01708
1.01276
1.01689
1.01306
1.01688
1.0104
1.01866
1.00993
1.02111
1.01548
1.02213
1.01476
1.02058
1.01306
1.01823
1.00481
1.01122
1.00864
1.01669
1.00927
1.01668
1.01654
1.02471
1.02473
1.03064
1.01858
1.02796
1.02287
1.02629
1.02067
1.02825
1.02169
1.02727
1.02338
1.0296
1.02318
1.03567
1.02625
1.02809
1.02571
1.02882
1.02004
1.03366
1.02918
1.02873
1.02763
1.0269
1.03188
1.02314
1.01654
1.00957
1.00907
1.0017
1.00911
0.993842
1.0064
0.982427
1.01586
0.900495
1.05282
1.03423
1.00733
1.01012
0.993164
0.996811
1.00261
0.996617
1.02116
1.01142
1.02301
1.00527
1.01688
1.00107
1.01089
1.00022
1.01235
1.00313
1.01603
1.00421
1.0137
1.01123
1.01595
1.01161
1.02051
1.01093
1.01442
1.01022
1.02304
1.00591
1.02374
1.01403
1.02073
1.0155
1.01983
1.01731
1.02033
1.01421
1.02027
1.00541
1.02107
1.00925
1.01829
1.01133
1.0228
1.01228
1.02766
1.01829
1.02893
1.01759
1.0304
1.01307
1.02577
1.02103
1.02311
1.02217
1.02597
1.02186
1.02856
1.02529
1.03188
1.03269
1.03959
1.02877
1.04451
1.029
1.03969
1.0264
1.03022
1.02456
1.03481
1.0269
1.02383
1.01253
1.01071
1.00727
1.00081
1.00831
0.993724
1.00668
0.981226
1.01418
0.911403
1.03282
1.04943
1.01899
1.01091
1.01907
1.01417
1.01584
1.02158
1.03451
1.02238
1.01768
1.02498
1.01792
1.01987
0.999389
1.02241
1.00234
1.02039
1.00571
1.01456
1.01094
1.0167
1.01269
1.01578
1.01039
1.01749
1.0142
1.01543
1.01126
1.01733
1.00911
1.01881
1.01084
1.02141
1.01775
1.02152
1.01542
1.02133
1.01204
1.01839
1.0041
1.01108
1.00937
1.01749
1.00819
1.01863
1.01619
1.02438
1.02288
1.02906
1.02084
1.02827
1.02517
1.02816
1.01857
1.02889
1.02229
1.02503
1.02227
1.02729
1.02314
1.03509
1.02639
1.02998
1.0276
1.02668
1.02382
1.03724
1.02786
1.02946
1.02843
1.02722
1.0307
1.02288
1.0156
1.00948
1.00618
1.00355
1.00758
0.992009
1.00363
0.980855
1.01273
0.910354
1.05287
1.03574
1.01001
1.0116
0.99419
0.99766
1.00357
0.997979
1.02204
1.00864
1.02623
1.01156
1.01494
1.00855
1.01811
1.005
1.01292
0.998577
1.01138
1.00225
1.01683
1.01238
1.01198
1.00859
1.01653
1.01011
1.01843
1.01136
1.01841
1.01051
1.02169
1.00792
1.02113
1.01372
1.02088
1.01481
1.01917
1.01613
1.01996
1.01325
1.01961
1.00479
1.02209
1.01063
1.01672
1.00864
1.02166
1.01352
1.02735
1.02136
1.03091
1.01881
1.03199
1.01288
1.02547
1.02195
1.02366
1.02173
1.02675
1.02348
1.02922
1.02632
1.03152
1.02934
1.0407
1.03144
1.04583
1.02784
1.03832
1.02665
1.03019
1.02525
1.03426
1.0284
1.02423
1.01154
1.01135
1.00471
1.00316
1.00713