/*--------------------------------*- C++ -*----------------------------------*\
| =========                 |                                                 |
| \\      /  F ield         | OpenFOAM: The Open Source CFD Toolbox           |
|  \\    /   O peration     | Version:  2206                                  |
|   \\  /    A nd           | Website:  www.openfoam.com                      |
|    \\/     M anipulation  |                                                 |
\*---------------------------------------------------------------------------*/
FoamFile
{
    version     2.0;
    format      ascii;
    arch        "LSB;label=32;scalar=64";
    class       volScalarField;
    location    "160";
    object      rhoMean;
}
// * * * * * * * * * * * * * * * * * * * * * * * * * * * * * * * * * * * * * //

dimensions      [1 -3 0 0 0 0 0];

internalField   nonuniform List<scalar> 
93840
(
1.94566
0.713603
1.69724
1.3178
0.796247
1.47077
0.815937
1.21564
0.796971
1.34822
1.15098
0.93125
1.23188
0.866009
1.22116
0.985974
1.17397
0.939323
1.16427
0.964996
1.0524
1.07671
0.911491
1.19846
0.983763
1.11641
1.03399
0.981142
0.974138
1.12775
0.92392
1.12931
0.970485
1.0715
1.091
0.887995
1.07607
0.906415
1.14403
0.980154
1.07189
1.0645
1.06246
1.07727
0.911261
0.970707
1.09711
0.927859
1.07961
0.985591
1.06623
1.03735
1.04535
1.07103
0.818541
1.07686
0.9489
1.1216
0.993577
1.0586
1.05839
1.02689
1.0529
1.02854
1.07982
0.89524
0.972252
1.08672
0.949281
1.05865
1.00749
1.04767
1.02584
1.04125
1.02054
1.01481
1.07498
0.836534
1.0689
0.947097
1.10303
1.01573
1.05923
1.05726
1.0289
1.04275
1.01218
1.04179
1.00633
1.06974
0.890602
0.974558
1.08104
0.96077
1.04405
1.00929
1.03494
1.02867
1.03522
1.01369
1.02519
1.01936
1.01906
1.06587
0.825963
1.0694
0.951313
1.08854
1.02169
1.04633
1.05181
1.03658
1.04125
1.01777
1.02831
0.999288
1.0238
1.00362
1.06026
0.893803
0.975978
1.08324
0.973048
1.02816
1.00994
1.02856
1.02538
1.02533
1.01534
1.02756
1.01245
1.02053
1.01895
1.00895
1.05652
0.823485
1.06811
0.956328
1.07922
1.03126
1.03343
1.04596
1.03489
1.02591
1.02429
1.02867
1.01103
1.01596
0.995064
1.01639
1.0032
1.05251
0.895683
0.979542
1.07789
0.983593
1.01921
1.01792
1.02738
1.02287
1.02202
1.01438
1.02
1.00982
1.02282
1.01341
1.01182
1.01469
1.00363
1.04934
0.82453
1.06415
0.961441
1.06949
1.03856
1.03128
1.04851
1.03802
1.02303
1.02538
1.01724
1.01852
1.02388
1.00665
1.0095
0.997167
1.01184
1.00048
1.04635
0.900235
0.97861
1.07571
0.99323
1.01369
1.02298
1.02699
1.0255
1.02768
1.01459
1.01774
1.00921
1.01684
1.0071
1.01662
1.01188
1.00509
1.01086
0.999351
1.04389
0.830287
1.06308
0.965874
1.05794
1.04283
1.02762
1.04628
1.04026
1.0287
1.03037
1.01711
1.02159
1.01303
1.01431
1.01864
1.00707
1.00565
0.997676
1.00811
0.9977
1.04194
0.904477
0.977296
1.07091
1.0003
1.00998
1.02607
1.02978
1.02933
1.03113
1.01924
1.02421
1.01116
1.01475
1.00661
1.01231
1.00692
1.01265
1.0102
0.998229
1.00838
0.995774
1.04014
0.839657
1.06297
0.971379
1.04767
1.04561
1.0261
1.04519
1.04278
1.02989
1.03429
1.02337
1.02779
1.01376
1.01862
1.00926
1.0119
1.00927
1.00635
1.00266
0.997854
1.00569
0.995725
1.03965
0.905928
0.979731
1.06357
1.00962
1.00971
1.02732
1.03197
1.03094
1.03518
1.02478
1.02823
1.01548
1.02211
1.00947
1.01233
1.00515
1.00994
1.00925
1.00833
1.00915
0.994454
1.00639
0.992735
1.03764
0.850889
1.06433
0.976411
1.03893
1.04787
1.02784
1.04413
1.0423
1.03022
1.03924
1.02541
1.03224
1.01965
1.02558
1.01132
1.01631
1.00665
1.00899
1.00827
1.00534
1.00107
0.996236
1.00445
0.994824
1.03242
0.860413
0.98242
1.05963
1.01738
1.0108
1.02903
1.03333
1.03247
1.03903
1.02844
1.03255
1.0229
1.02729
1.01357
1.02026
1.00787
1.01042
1.0044
1.00724
1.00867
1.00473
1.00792
0.991865
1.00447
0.990369
1.0222
0.84319
1.06132
0.980842
1.02524
1.04671
1.02642
1.03983
1.04101
1.03079
1.0413
1.02662
1.03763
1.02207
1.03054
1.01752
1.02333
1.00912
1.01474
1.00502
1.0067
1.00495
1.00446
0.999335
0.99487
1.0032
0.992234
1.05007
0.872442
0.983444
1.05225
1.01946
1.0086
1.02594
1.02889
1.02912
1.03829
1.02878
1.03737
1.02738
1.03147
1.02146
1.02652
1.01142
1.01861
1.00693
1.00885
1.00348
1.00513
1.00753
1.00158
1.00674
0.989955
1.00275
0.981326
1.04248
0.871009
1.0585
0.983371
1.01405
1.04206
1.02227
1.03294
1.037
1.02782
1.04125
1.02696
1.04074
1.02365
1.03659
1.01931
1.02716
1.01583
1.02249
1.00758
1.01324
1.00365
1.00453
1.00373
1.00364
0.99838
0.993511
1.00176
0.98692
1.03753
0.889795
0.98579
1.04496
1.01934
1.00548
1.02321
1.02468
1.02776
1.03925
1.02632
1.03822
1.02639
1.03713
1.02598
1.03074
1.02025
1.02256
1.01071
1.0173
1.00629
1.00733
1.00259
1.00374
1.00563
0.999586
1.00542
0.988901
1.00256
0.98698
1.03354
0.881467
1.05772
0.987963
1.00432
1.03634
1.01878
1.02763
1.0337
1.02317
1.0378
1.02367
1.04087
1.02447
1.04035
1.02169
1.03584
1.01896
1.0302
1.01377
1.02177
1.00626
1.01215
1.00082
1.00286
1.00278
1.0026
0.997535
0.992395
1.0011
0.989978
1.03077
0.89669
0.988343
1.03922
1.01766
1.00269
1.02067
1.01808
1.02304
1.03318
1.02434
1.041
1.024
1.03881
1.02461
1.0366
1.02473
1.02989
1.01807
1.02217
1.01011
1.01667
1.00589
1.00616
1.00292
1.00286
1.00363
0.998383
1.00454
0.988088
1.002
0.988362
1.02833
0.887742
1.05746
0.993215
0.994975
1.02927
1.01503
1.02249
1.02971
1.01844
1.03695
1.02059
1.03813
1.02173
1.04088
1.02306
1.04006
1.02046
1.03537
1.01812
1.02942
1.01235
1.02089
1.00509
1.01166
0.999261
1.00172
1.00153
1.00184
0.997022
0.991548
1.0004
0.990314
1.02642
0.899771
0.989797
1.03525
1.01953
1.00166
1.02001
1.01442
1.0198
1.02872
1.02169
1.03639
1.02121
1.04136
1.02275
1.03807
1.02399
1.03637
1.02366
1.03005
1.01653
1.02242
1.00961
1.01633
1.00521
1.00528
1.00179
1.0024
1.00237
0.997306
1.00354
0.987631
1.00122
0.988481
1.02468
0.891494
1.05389
0.996487
0.990009
1.02625
1.01411
1.02051
1.02808
1.01654
1.03537
1.01634
1.03776
1.01856
1.03825
1.02066
1.0402
1.02228
1.03893
1.01955
1.03464
1.01737
1.02877
1.01126
1.0202
1.00428
1.01125
0.998496
1.00128
1.0008
1.00125
0.996401
0.991101
1.00015
0.989747
1.02413
0.902446
0.992151
1.02977
1.01991
1.00073
1.01959
1.01252
1.0167
1.02563
1.01939
1.03304
1.01913
1.03703
1.0199
1.04102
1.02273
1.03795
1.0235
1.03592
1.02237
1.02984
1.01551
1.02271
1.00881
1.01625
1.00479
1.00487
1.00067
1.00047
1.00081
0.996249
1.00266
0.987272
1.00008
0.987974
1.02311
0.894692
1.05105
1.00011
0.987216
1.02529
1.01196
1.01774
1.02502
1.01438
1.03294
1.01438
1.03682
1.01516
1.03792
1.01774
1.03815
1.01993
1.03976
1.02155
1.03807
1.01932
1.03413
1.0159
1.02802
1.0106
1.01978
1.00336
1.01099
0.996704
1.00101
0.99984
1.00095
0.995844
0.990867
0.999665
0.989408
1.02244
0.905051
0.994429
1.02585
1.02108
0.998551
1.01747
1.01162
1.01456
1.02654
1.01766
1.03109
1.01724
1.03416
1.01817
1.03734
1.01945
1.04048
1.02248
1.03753
1.02283
1.03588
1.02171
1.02988
1.01547
1.02293
1.00844
1.01615
1.00401
1.00469
1.00141
0.999969
0.999786
0.995751
1.00184
0.987114
0.998785
0.987696
1.02168
0.897934
1.04992
1.00563
0.987784
1.02577
1.01156
1.01865
1.02731
1.0184
1.03426
1.01321
1.03479
1.01402
1.03704
1.01473
1.03785
1.01743
1.03782
1.01934
1.03938
1.02133
1.03781
1.01912
1.03425
1.01501
1.02712
1.00958
1.01955
1.00289
1.01047
0.996105
1.00043
0.998891
1.00038
0.995621
0.990849
0.998464
0.989336
1.02105
0.906953
0.998049
1.02445
1.02423
1.00182
1.02089
1.01592
1.017
1.02988
1.01781
1.03232
1.01745
1.0331
1.0165
1.03423
1.0177
1.03706
1.01902
1.04003
1.02211
1.03682
1.0221
1.0356
1.0207
1.02953
1.01534
1.02297
1.00794
1.01621
1.00343
1.00477
1.00025
0.999564
0.998783
0.995447
1.00074
0.987437
0.998072
0.987558
1.02035
0.900497
1.04918
1.011
0.989424
1.02766
1.01543
1.0235
1.03144
1.02342
1.03869
1.01792
1.03663
1.01203
1.03495
1.01418
1.03694
1.01471
1.03766
1.01719
1.03737
1.01895
1.03902
1.02076
1.03746
1.01866
1.03385
1.01467
1.02688
1.00927
1.01939
1.0022
1.0101
0.995787
0.999746
0.997968
0.999986
0.994978
0.990732
0.997236
0.989265
1.02001
0.909496
1.00034
1.02365
1.0266
1.00608
1.02476
1.0204
1.02007
1.03406
1.02082
1.03607
1.01884
1.03318
1.01878
1.03403
1.01581
1.03404
1.01797
1.03662
1.01847
1.03968
1.02168
1.03642
1.02142
1.03551
1.02015
1.02968
1.01473
1.02303
1.0075
1.0162
1.00273
1.00489
0.999095
0.999176
0.997988
0.995397
1.00008
0.987979
0.997135
0.987804
1.01875
0.90235
1.0478
1.01407
0.990938
1.03009
1.01954
1.02621
1.03256
1.02399
1.04119
1.02161
1.04086
1.01702
1.03792
1.01109
1.0319
1.01438
1.03672
1.01441
1.0372
1.01697
1.0371
1.01833
1.03826
1.0203
1.03717
1.01852
1.03354
1.01418
1.02668
1.00854
1.01913
1.00152
1.0096
0.995318
0.999225
0.996743
0.999862
0.994241
0.990844
0.996019
0.989373
1.01938
0.913261
1.0023
1.02157
1.02852
1.00972
1.02736
1.02273
1.02007
1.03292
1.01988
1.03833
1.0212
1.03786
1.02041
1.0339
1.01982
1.03354
1.01681
1.03401
1.01785
1.03646
1.0181
1.03919
1.0211
1.03636
1.01997
1.03546
1.01931
1.02977
1.01427
1.02305
1.00717
1.0161
1.0023
1.00479
0.997886
0.998906
0.997159
0.995484
0.999167
0.988421
0.995968
0.988165
1.01784
0.907081
1.04537
1.01638
0.993241
1.03218
1.02147
1.02508
1.03138
1.02241
1.04203
1.02081
1.04222
1.02055
1.04166
1.01729
1.03845
1.01272
1.03434
1.01348
1.03573
1.01442
1.03669
1.01658
1.03662
1.01775
1.03758
1.0206
1.03661
1.01842
1.03316
1.01377
1.02649
1.00764
1.01878
1.00094
1.00927
0.994936
0.999078
0.995528
0.999934
0.993798
0.991115
0.994999
0.989552
1.01631
0.917358
1.00324
1.0186
1.02768
1.01052
1.02598
1.02073
1.01801
1.03107
1.01817
1.03697
1.0192
1.03955
1.02155
1.03849
1.02089
1.03405
1.01926
1.0336
1.01712
1.03397
1.01771
1.03588
1.01782
1.03896
1.02053
1.0361
1.0193
1.03525
1.01847
1.0299
1.01377
1.02303
1.00691
1.01573
1.00181
1.00468
0.996755
0.998598
0.996275
0.995491
0.99818
0.988754
0.995104
0.988584
1.01479
0.910786
1.04317
1.0169
0.99319
1.03124
1.01904
1.0207
1.029
1.01971
1.04062
1.01806
1.04263
1.01973
1.04238
1.02079
1.04194
1.01764
1.03871
1.0135
1.03416
1.01404
1.03597
1.01434
1.03641
1.01631
1.03629
1.01756
1.03699
1.0202
1.03652
1.01832
1.03273
1.01337
1.0262
1.00722
1.01836
1.00029
1.00893
0.993983
0.998849
0.994365
1.00015
0.993093
0.991445
0.994084
0.989721
1.01336
0.920228
1.00402
1.01539
1.02471
1.00946
1.02274
1.0176
1.01568
1.02896
1.01467
1.03383
1.01897
1.03817
1.02005
1.04058
1.02149
1.03889
1.02136
1.03442
1.01918
1.03348
1.01632
1.03386
1.01749
1.03573
1.01756
1.03733
1.0201
1.03543
1.01932
1.03488
1.01779
1.02978
1.01346
1.02279
1.00656
1.01567
1.00138
1.0047
0.996149
0.99846
0.99558
0.995614
0.997141
0.989027
0.994087
0.988758
1.01196
0.913402
1.04108
1.01822
0.991982
1.02864
1.01585
1.01649
1.02593
1.01658
1.03616
1.01434
1.0396
1.01635
1.04095
1.01935
1.04155
1.02134
1.04211
1.01777
1.03903
1.01447
1.03396
1.01488
1.03546
1.01458
1.03593
1.01645
1.03627
1.01739
1.03584
1.01989
1.03614
1.01839
1.03225
1.01298
1.02584
1.00667
1.0182
0.999743
1.00868
0.993398
0.998717
0.993447
1.00044
0.992494
0.991766
0.993043
0.989931
1.01063
0.922429
1.00571
1.01358
1.02153
1.00719
1.0193
1.01502
1.01261
1.0263
1.01038
1.03077
1.01554
1.03496
1.01924
1.03942
1.02001
1.03981
1.02267
1.03904
1.02157
1.03454
1.01866
1.03346
1.01596
1.03343
1.01709
1.0355
1.01702
1.0375
1.01974
1.03573
1.01907
1.03444
1.01751
1.02954
1.01317
1.02257
1.00588
1.01529
1.00095
1.0046
0.995231
0.998467
0.994631
0.995705
0.996175
0.989483
0.993043
0.989141
1.00932
0.915943
1.03894
1.02015
0.991664
1.02603
1.0133
1.01309
1.02204
1.01305
1.03294
1.01138
1.03691
1.01323
1.03958
1.0164
1.04022
1.02006
1.04069
1.02099
1.04234
1.01815
1.03836
1.01542
1.03373
1.01525
1.03486
1.01454
1.03573
1.01644
1.03588
1.01744
1.03546
1.01951
1.03585
1.01829
1.03164
1.01259
1.02543
1.00626
1.01802
0.999209
1.00848
0.992793
0.998498
0.992542
1.00058
0.991861
0.991955
0.991959
0.990266
1.00811
0.925242
1.00703
1.01184
1.01864
1.00438
1.0164
1.01305
1.00969
1.02503
1.00972
1.02954
1.01106
1.03117
1.01575
1.03416
1.01928
1.03945
1.02112
1.04043
1.02266
1.03907
1.02194
1.03473
1.01868
1.03352
1.01601
1.03346
1.01713
1.03487
1.01674
1.03653
1.01957
1.03544
1.01895
1.03411
1.01707
1.02923
1.0129
1.02217
1.0056
1.01469
1.00057
1.00457
0.994363
0.998381
0.993692
0.995704
0.995388
0.989678
0.991901
0.989485
1.00689
0.918972
1.03706
1.02264
0.993609
1.02466
1.01199
1.0098
1.01831
1.01105
1.03224
1.00922
1.03438
1.01077
1.03581
1.0126
1.03836
1.01677
1.04079
1.01996
1.04097
1.02132
1.04219
1.01887
1.03825
1.01587
1.03351
1.01536
1.03457
1.01449
1.03521
1.01651
1.03562
1.01722
1.03507
1.01916
1.03547
1.0183
1.03117
1.01227
1.02508
1.0056
1.01794
0.998645
1.00823
0.99218
0.998298
0.991599
1.00057
0.990997
0.99214
0.99107
0.990423
1.0057
0.928099
1.00846
1.01043
1.01717
1.00342
1.0155
1.0113
1.00788
1.02469
1.01027
1.02915
1.01079
1.03068
1.01211
1.03146
1.01616
1.03533
1.01927
1.03971
1.02122
1.0406
1.02206
1.03908
1.02218
1.03399
1.01889
1.03335
1.01598
1.03308
1.01707
1.03433
1.01692
1.0359
1.01928
1.03505
1.01865
1.03359
1.01661
1.02883
1.01241
1.02191
1.00508
1.01455
1.00016
1.00456
0.993565
0.998202
0.992906
0.996008
0.994577
0.98988
0.991061
0.989784
1.00463
0.921501
1.03521
1.02437
0.995679
1.02336
1.01098
1.00755
1.01678
1.01032
1.03242
1.00854
1.0337
1.00822
1.03179
1.01108
1.03593
1.01261
1.03775
1.01719
1.04015
1.02072
1.04075
1.02212
1.04196
1.0196
1.03787
1.01649
1.03334
1.01537
1.03449
1.01451
1.03443
1.01639
1.03516
1.01713
1.03478
1.01879
1.03462
1.0183
1.03082
1.01204
1.02465
1.0057
1.01756
0.998205
1.00792
0.991542
0.9981
0.990672
1.00071
0.990307
0.992293
0.990314
0.99052
1.0036
0.930604
1.0108
1.01054
1.01636
1.00331
1.01486
1.01057
1.00753
1.02452
1.0114
1.03018
1.01163
1.02985
1.01222
1.03157
1.01304
1.03158
1.0163
1.03539
1.01951
1.03817
1.02126
1.03973
1.02292
1.03878
1.02254
1.03444
1.01768
1.03305
1.01617
1.03249
1.0172
1.03357
1.01692
1.03547
1.01869
1.03459
1.01848
1.03249
1.01648
1.02853
1.01208
1.02157
1.0048
1.01437
0.999591
1.00459
0.992542
0.998055
0.99194
0.996005
0.993715
0.990197
0.990293
0.989841
1.00247
0.924398
1.03401
1.02657
0.996678
1.02307
1.01097
1.00657
1.01695
1.01014
1.03334
1.00884
1.03434
1.00817
1.03283
1.01006
1.03204
1.01028
1.03347
1.01385
1.03654
1.01796
1.03967
1.02115
1.03981
1.02233
1.04161
1.02037
1.0376
1.01778
1.03318
1.01536
1.03396
1.01454
1.03417
1.01625
1.03473
1.01714
1.03443
1.01883
1.03483
1.01778
1.03036
1.01164
1.02432
1.00531
1.01713
0.997756
1.00756
0.990933
0.998002
0.989858
1.00068
0.98969
0.992277
0.989577
0.990531
1.00146
0.933599
1.01342
1.011
1.01778
1.00441
1.01463
1.01079
1.00878
1.02486
1.01259
1.03038
1.01239
1.03196
1.01221
1.03048
1.01225
1.0312
1.01401
1.03257
1.01655
1.03533
1.01987
1.03675
1.02215
1.04017
1.02333
1.03772
1.02302
1.03461
1.018
1.03306
1.01619
1.0323
1.01664
1.03337
1.01661
1.03515
1.01849
1.03349
1.01821
1.03207
1.01643
1.02809
1.01168
1.02117
1.00448
1.01418
0.999202
1.00465
0.992283
0.997844
0.991008
0.995918
0.992751
0.990459
0.989513
0.989854
1.0003
0.927631
1.03339
1.02915
0.999567
1.02388
1.01178
1.00693
1.01838
1.00948
1.03345
1.0085
1.0356
1.0093
1.03425
1.00973
1.03176
1.01063
1.03189
1.01168
1.03292
1.01416
1.0363
1.01846
1.03985
1.02156
1.03951
1.02282
1.04153
1.02059
1.03728
1.01799
1.03305
1.01538
1.03383
1.0151
1.03376
1.01608
1.03439
1.0168
1.03404
1.01848
1.03425
1.01719
1.03002
1.01136
1.02396
1.00489
1.01679
0.997315
1.00709
0.990461
0.997638
0.98907
1.00061
0.989172
0.992113
0.988703
0.990327
0.999282
0.936975
1.01588
1.01206
1.01846
1.00559
1.01558
1.01171
1.01038
1.02443
1.0127
1.03007
1.01379
1.03088
1.01261
1.03097
1.01387
1.03096
1.01348
1.03133
1.01409
1.03246
1.01658
1.0351
1.01994
1.03703
1.02206
1.04004
1.0238
1.03798
1.02322
1.03478
1.01783
1.03253
1.01634
1.03194
1.0164
1.03307
1.01627
1.03472
1.01835
1.03348
1.01795
1.03184
1.0163
1.02777
1.01125
1.02079
1.00421
1.01383
0.998876
1.00474
0.991631
0.997427
0.990235
0.995785
0.991834
0.990864
0.98867
0.98976
0.998161
0.931052
1.03205
1.03051
1.00265
1.02519
1.01315
1.0077
1.01992
1.00826
1.03267
1.00781
1.03626
1.0093
1.03539
1.01041
1.03139
1.01083
1.03105
1.01078
1.03152
1.01234
1.03298
1.01438
1.03606
1.01891
1.03951
1.02189
1.03916
1.0232
1.04049
1.02071
1.03594
1.01841
1.0333
1.01532
1.03355
1.01508
1.03329
1.01581
1.03398
1.0167
1.03364
1.01815
1.03365
1.01659
1.02958
1.01103
1.02353
1.00439
1.01637
0.996823
1.00651
0.989944
0.997146
0.988352
1.00014
0.988838
0.991894
0.987918
0.990196
0.997033
0.940148
1.01789
1.01281
1.01782
1.0066
1.0158
1.01234
1.01128
1.02357
1.01253
1.0292
1.01305
1.03037
1.01453
1.03118
1.01428
1.03256
1.01444
1.03132
1.01399
1.03066
1.01432
1.03224
1.0165
1.0348
1.01981
1.03732
1.02213
1.03988
1.02373
1.03814
1.0234
1.03621
1.01794
1.03225
1.01635
1.03162
1.01598
1.03284
1.01608
1.03421
1.01812
1.03307
1.01755
1.03162
1.01584
1.02728
1.01084
1.02048
1.00378
1.01351
0.998611
1.00472
0.991286
0.997243
0.989537
0.995743
0.991163
0.991153
0.98793
0.989636
0.995639
0.934481
1.03208
1.03158
1.00503
1.02688
1.01472
1.0085
1.02085
1.00721
1.032
1.00725
1.03526
1.00893
1.03538
1.01038
1.03383
1.01289
1.03113
1.01148
1.0308
1.01165
1.03135
1.01264
1.03245
1.01498
1.0358
1.01923
1.03898
1.02231
1.03916
1.02343
1.04097
1.02117
1.03562
1.01856
1.03322
1.01537
1.03325
1.01515
1.03289
1.0157
1.03343
1.01657
1.03326
1.0177
1.03299
1.01641
1.02903
1.01069
1.02324
1.00397
1.01598
0.996357
1.00609
0.98952
0.996897
0.987587
0.999766
0.98835
0.991728
0.98711
0.989852
0.994686
0.943001
1.01888
1.0149
1.01951
1.00787
1.01639
1.01317
1.01161
1.02299
1.01241
1.02772
1.01313
1.0284
1.01508
1.03066
1.01499
1.03102
1.01398
1.03236
1.01478
1.03157
1.01432
1.03067
1.01462
1.03158
1.0169
1.0349
1.01975
1.03737
1.02227
1.03964
1.024
1.03826
1.02318
1.03619
1.01809
1.03215
1.01627
1.03148
1.01528
1.03262
1.01589
1.03376
1.0179
1.03267
1.01721
1.03145
1.01561
1.02673
1.0104
1.02024
1.00338
1.0132
0.998465
1.00449
0.990691
0.996752
0.988953
0.995779
0.99062
0.991039
0.987121
0.989359
0.9933
0.937685
1.03107
1.0315
1.00584
1.02755
1.016
1.00854
1.02087
1.00619
1.03081
1.00682
1.03394
1.00844
1.0345
1.00966
1.03236
1.01342
1.03381
1.01388
1.03144
1.01224
1.03062
1.01231
1.03124
1.01313
1.0322
1.01504
1.03466
1.01979
1.03867
1.02255
1.0392
1.0234
1.03994
1.0216
1.0356
1.01866
1.03318
1.01536
1.0325
1.01558
1.03259
1.01549
1.03298
1.01635
1.03297
1.01733
1.03259
1.01577
1.02904
1.01023
1.02292
1.00346
1.01552
0.995836
1.00557
0.989261
0.996531
0.986901
0.999151
0.987876
0.991556
0.98636
0.989426
0.992174
0.946047
1.01983
1.01527
1.02086
1.00909
1.01667
1.01334
1.01106
1.02237
1.01173
1.02628
1.01212
1.02846
1.01426
1.02674
1.01655
1.02992
1.01535
1.03013
1.01537
1.03197
1.01521
1.03159
1.01446
1.03061
1.01511
1.03197
1.01705
1.03492
1.01989
1.03737
1.02256
1.03946
1.02413
1.03945
1.02302
1.03596
1.01801
1.03207
1.01625
1.03138
1.0151
1.03237
1.01572
1.03328
1.01755
1.03216
1.0168
1.03117
1.01535
1.02626
1.00982
1.02005
1.00296
1.01287
0.998241
1.00429
0.989939
0.996446
0.988239
0.995593
0.990103
0.991088
0.986171
0.988768
0.990783
0.941124
1.0301
1.03193
1.00689
1.02785
1.01711
1.00803
1.02035
1.00549
1.02938
1.00634
1.03273
1.00819
1.0331
1.01086
1.03419
1.01199
1.03229
1.01427
1.03231
1.01424
1.03115
1.01337
1.03074
1.0132
1.03123
1.01354
1.03201
1.01562
1.03439
1.01971
1.03848
1.02248
1.03923
1.02371
1.03957
1.02212
1.03576
1.0189
1.03309
1.01543
1.0323
1.01553
1.03223
1.01528
1.0327
1.01613
1.03266
1.01688
1.03216
1.01524
1.0288
1.00978
1.02261
1.00299
1.015
0.995442
1.00512
0.98906
0.996113
0.98619
0.998802
0.987292
0.991153
0.985436
0.988803
0.98954
0.949784
1.02056
1.01525
1.0216
1.00955
1.01662
1.01303
1.01012
1.02182
1.01079
1.02546
1.01136
1.02719
1.01339
1.02623
1.01617
1.02733
1.01665
1.02986
1.0171
1.03058
1.01613
1.03076
1.01555
1.03115
1.01444
1.03042
1.01546
1.03191
1.01722
1.03466
1.02032
1.03755
1.02282
1.03926
1.02416
1.03944
1.02307
1.03587
1.01805
1.03204
1.01605
1.03112
1.01502
1.03199
1.01549
1.03296
1.01716
1.03187
1.0164
1.03093
1.01485
1.0261
1.00931
1.01985
1.00248
1.01257
0.997916
1.00388
0.989194
0.996148
0.987609
0.995521
0.989517
0.991016
0.985258
0.98825
0.987921
0.944942
1.02936
1.03177
1.00676
1.02704
1.01749
1.00705
1.01969
1.00499
1.02759
1.00615
1.03207
1.00776
1.03175
1.0097
1.03236
1.01108
1.03206
1.01361
1.0315
1.01493
1.03182
1.01531
1.03164
1.01401
1.03052
1.01372
1.03065
1.01388
1.0319
1.0159
1.0342
1.01974
1.03828
1.02263
1.03912
1.02375
1.03957
1.02221
1.0356
1.01904
1.03283
1.01564
1.03208
1.01537
1.032
1.01503
1.03239
1.01588
1.03236
1.01638
1.03179
1.01472
1.02834
1.00924
1.02212
1.00251
1.01443
0.995007
1.00474
0.988652
0.99577
0.985455
0.99835
0.986863
0.990794
0.984454
0.988639
0.986891
0.953246
1.02132
1.01537
1.02159
1.00935
1.01612
1.01251
1.00901
1.02118
1.00969
1.02499
1.01059
1.02679
1.01236
1.02701
1.01509
1.0273
1.01675
1.02864
1.01731
1.02996
1.01783
1.03096
1.01649
1.03067
1.01595
1.03121
1.01479
1.03107
1.01568
1.03192
1.0173
1.03471
1.02029
1.03748
1.02296
1.03917
1.02423
1.03927
1.02337
1.03554
1.01836
1.03165
1.01622
1.03088
1.0149
1.03181
1.01523
1.03269
1.01674
1.03152
1.01602
1.03058
1.01434
1.02596
1.00889
1.01967
1.00203
1.01232
0.997483
1.00312
0.98858
0.995781
0.986932
0.995299
0.988938
0.990932
0.984185
0.988237
0.985716
0.948096
1.02781
1.03122
1.00673
1.02617
1.01733
1.00606
1.01894
1.00437
1.02609
1.00667
1.03139
1.0075
1.0314
1.00875
1.03055
1.01017
1.02828
1.01305
1.02867
1.0151
1.03109
1.01521
1.03079
1.01609
1.03125
1.01454
1.03036
1.01408
1.03051
1.01421
1.03181
1.0163
1.03416
1.01993
1.0382
1.02277
1.03906
1.02379
1.0396
1.02226
1.03524
1.01921
1.03211
1.01554
1.03183
1.0152
1.03165
1.01482
1.03213
1.01559
1.03186
1.01596
1.03151
1.01425
1.02793
1.00883
1.02156
1.002
1.01389
0.994633
1.00434
0.988343
0.995433
0.984703
0.997899
0.986426
0.990314
0.983371
0.988809
0.985357
0.955909
1.0215
1.01509
1.02045
1.00856
1.01536
1.01209
1.00795
1.02049
1.00887
1.02479
1.01008
1.02675
1.01177
1.02721
1.01325
1.02692
1.01565
1.02719
1.01716
1.02805
1.01752
1.02974
1.01851
1.03083
1.01703
1.03063
1.01641
1.031
1.01536
1.03088
1.01569
1.03192
1.01727
1.03467
1.02024
1.03743
1.02307
1.0392
1.02426
1.03921
1.02375
1.03582
1.01868
1.03195
1.01612
1.03059
1.01482
1.03148
1.01497
1.03236
1.01623
1.03136
1.01563
1.03034
1.01392
1.02569
1.00845
1.01948
1.00153
1.01204
0.997027
1.0027
0.988121
0.995417
0.986236
0.995159
0.988342
0.990798
0.983056
0.988204
0.984231
0.950872
1.02637
1.03094
1.00669
1.02487
1.01726
1.00548
1.01848
1.00386
1.02496
1.00686
1.03027
1.00828
1.03062
1.00736
1.02832
1.01058
1.02719
1.01342
1.0283
1.01502
1.02942
1.01581
1.03047
1.0161
1.03026
1.0165
1.03049
1.01519
1.03009
1.01432
1.03079
1.01463
1.03172
1.01645
1.03414
1.02009
1.03812
1.02285
1.039
1.02388
1.03968
1.02226
1.03536
1.01929
1.03196
1.01552
1.03169
1.01492
1.03136
1.01456
1.03194
1.01545
1.03147
1.01544
1.03122
1.01389
1.0274
1.00829
1.02128
1.00149
1.01333
0.994381
1.00395
0.987776
0.995108
0.983999
0.997285
0.985953
0.989976
0.98246
0.988698
0.983623
0.958455
1.02152
1.01598
1.02053
1.00789
1.01462
1.01178
1.00706
1.01973
1.0083
1.02432
1.00935
1.02616
1.01066
1.02572
1.01384
1.02579
1.01449
1.02743
1.01596
1.02712
1.01768
1.02836
1.0178
1.0299
1.01868
1.03068
1.01738
1.03111
1.0166
1.03105
1.01556
1.03062
1.01584
1.03173
1.01728
1.03453
1.0203
1.03735
1.02315
1.03915
1.02426
1.03915
1.02394
1.03581
1.01867
1.03187
1.01602
1.03041
1.01474
1.03104
1.01475
1.03202
1.01584
1.03106
1.01524
1.03001
1.01347
1.02557
1.008
1.01915
1.00104
1.01173
0.996435
1.00229
0.987715
0.995047
0.985549
0.994999
0.987549
0.990591
0.982316
0.987981
0.982379
0.954066
1.02597
1.03054
1.00667
1.02336
1.01725
1.00505
1.01807
1.00306
1.02412
1.00703
1.02967
1.00852
1.029
1.01006
1.02933
1.01051
1.02792
1.01326
1.02695
1.01419
1.02801
1.01548
1.02913
1.0163
1.03013
1.01707
1.02993
1.01708
1.03028
1.01564
1.0302
1.01458
1.03088
1.01484
1.03155
1.01665
1.03405
1.02002
1.03799
1.02285
1.03898
1.02395
1.03955
1.02236
1.03523
1.01938
1.03177
1.01545
1.03147
1.01469
1.03118
1.01438
1.03184
1.01518
1.0312
1.01501
1.03099
1.01349
1.02709
1.0078
1.02081
1.00097
1.01279
0.994062
1.00352
0.987134
0.994697
0.983392
0.996899
0.985517
0.989671
0.981653
0.988501
0.98129
0.960899
1.02179
1.01642
1.02032
1.00702
1.01381
1.01152
1.00638
1.01887
1.00814
1.02403
1.00955
1.0264
1.01053
1.02545
1.01262
1.02457
1.01514
1.02511
1.01464
1.02664
1.01655
1.0271
1.01778
1.02838
1.01806
1.02964
1.0188
1.03095
1.01758
1.03096
1.01678
1.03099
1.01579
1.03065
1.01602
1.03191
1.01729
1.03438
1.02068
1.03731
1.02328
1.0391
1.0243
1.03916
1.02392
1.03568
1.01886
1.03183
1.01585
1.03017
1.01461
1.03071
1.01444
1.03147
1.01544
1.03084
1.01481
1.02968
1.01298
1.02515
1.00759
1.01898
1.00048
1.01137
0.995776
1.00192
0.98734
0.994627
0.984867
0.99469
0.986915
0.990395
0.981452
0.988
0.980086
0.957124
1.02526
1.03073
1.00652
1.0224
1.01742
1.00464
1.01769
1.0022
1.02398
1.00723
1.02908
1.00881
1.02901
1.01002
1.0268
1.01162
1.02708
1.01214
1.02753
1.01417
1.02678
1.01469
1.02794
1.01592
1.02911
1.01681
1.02991
1.01755
1.02992
1.01776
1.03017
1.01617
1.03019
1.01489
1.03086
1.01505
1.03151
1.01688
1.03401
1.02016
1.03791
1.02289
1.03889
1.02403
1.03958
1.02257
1.03497
1.0194
1.03168
1.01538
1.03129
1.01444
1.03094
1.0142
1.03151
1.0149
1.03099
1.01456
1.03081
1.01305
1.02676
1.00728
1.02039
1.00051
1.01229
0.993819
1.00312
0.986614
0.994296
0.982811
0.996459
0.984804
0.989571
0.980442
0.988667
0.980152
0.964131
1.02248
1.01718
1.02064
1.00636
1.01334
1.01146
1.00601
1.01806
1.00845
1.02378
1.01003
1.0259
1.01072
1.02417
1.01242
1.02506
1.01472
1.02532
1.01494
1.02535
1.01519
1.02587
1.01678
1.02706
1.01775
1.02848
1.01819
1.02971
1.01875
1.03094
1.0178
1.03071
1.01689
1.03104
1.01583
1.03066
1.01615
1.03186
1.01736
1.03428
1.02071
1.03729
1.02337
1.03912
1.02439
1.03916
1.02403
1.03574
1.01885
1.0317
1.01578
1.03
1.01441
1.03041
1.01416
1.03137
1.01499
1.03057
1.01443
1.02943
1.01257
1.02479
1.00711
1.01873
0.999933
1.01114
0.995001
1.0016
0.986906
0.994221
0.984197
0.994357
0.986207
0.990431
0.980203
0.988132
0.979218
0.960167
1.0257
1.03105
1.00685
1.02105
1.01776
1.00421
1.01745
1.00143
1.02402
1.00707
1.02873
1.00946
1.02826
1.00972
1.02509
1.01306
1.02646
1.01208
1.02474
1.0138
1.02613
1.01509
1.02695
1.015
1.02788
1.01617
1.02876
1.01729
1.02993
1.01796
1.02998
1.01798
1.03043
1.01668
1.03037
1.01517
1.03074
1.01528
1.03151
1.01694
1.03401
1.02025
1.03787
1.023
1.03895
1.02405
1.03948
1.02269
1.03483
1.01947
1.03161
1.01518
1.03108
1.01428
1.03068
1.01396
1.03128
1.01462
1.03075
1.01423
1.03057
1.0126
1.0264
1.00679
1.01991
1.00005
1.01177
0.993427
1.00263
0.986181
0.993835
0.982143
0.996049
0.98415
0.989526
0.979426
0.988828
0.978613
0.967093
1.02259
1.01813
1.0199
1.00604
1.01344
1.01143
1.00578
1.01739
1.00897
1.02321
1.01019
1.02494
1.01117
1.02376
1.01456
1.02417
1.01393
1.02475
1.01517
1.02605
1.01543
1.02548
1.01557
1.02581
1.01694
1.02705
1.01782
1.02819
1.01824
1.02975
1.01885
1.03102
1.01798
1.03067
1.0169
1.03094
1.01599
1.03072
1.01631
1.03189
1.01745
1.03428
1.02069
1.03725
1.02335
1.03909
1.02457
1.03922
1.02406
1.03581
1.01883
1.03163
1.01567
1.02982
1.01423
1.03015
1.01386
1.03107
1.01465
1.03035
1.014
1.02916
1.01209
1.02453
1.00674
1.0184
0.999318
1.01087
0.994331
1.00135
0.986328
0.993791
0.983523
0.994072
0.985362
0.990427
0.979286
0.988564
0.977567
0.963907
1.0254
1.03169
1.00764
1.01975
1.01828
1.00353
1.0173
1.00088
1.02437
1.00734
1.02902
1.00938
1.02726
1.01092
1.02498
1.01357
1.02515
1.01332
1.02456
1.01472
1.02403
1.0148
1.02551
1.01534
1.02687
1.01536
1.02774
1.01661
1.029
1.01751
1.02994
1.01815
1.03011
1.01806
1.03048
1.01684
1.03043
1.01539
1.03077
1.01542
1.0315
1.01698
1.034
1.0203
1.03782
1.0231
1.03898
1.02402
1.03938
1.02277
1.03488
1.01942
1.03157
1.01501
1.03091
1.01405
1.03044
1.01367
1.03101
1.01432
1.03049
1.0138
1.03036
1.0122
1.02594
1.00633
1.01929
0.999643
1.0111
0.993028
1.00221
0.985689
0.993345
0.981446
0.995679
0.983411
0.989492
0.978513
0.989356
0.976603
0.970842
1.02294
1.01942
1.01968
1.00684
1.01341
1.01112
1.00567
1.01691
1.00937
1.02241
1.01119
1.0226
1.01328
1.02537
1.01491
1.0245
1.01496
1.02423
1.01463
1.02525
1.01553
1.02587
1.01596
1.02546
1.01575
1.02564
1.01717
1.02711
1.01796
1.02835
1.01827
1.02978
1.01888
1.03105
1.01818
1.03072
1.01708
1.03079
1.01614
1.03068
1.01642
1.03186
1.01755
1.03426
1.02067
1.03727
1.0233
1.03906
1.02466
1.03916
1.02413
1.03579
1.0188
1.03156
1.01557
1.02962
1.01403
1.02995
1.01354
1.03075
1.01436
1.0301
1.01363
1.02889
1.01172
1.02415
1.00642
1.01807
0.998821
1.01064
0.993699
1.00106
0.98583
0.993371
0.982822
0.993768
0.98448
0.990491
0.978286
0.989205
0.9756
0.967771
1.02506
1.03224
1.00767
1.01899
1.01855
1.00283
1.01746
1.00067
1.02447
1.007
1.02773
1.01028
1.02639
1.01116
1.02509
1.01355
1.02431
1.01447
1.02448
1.01549
1.02337
1.01527
1.02422
1.01513
1.02546
1.01561
1.02681
1.01558
1.0276
1.01671
1.02882
1.0179
1.02988
1.01833
1.03022
1.01818
1.03056
1.01698
1.03051
1.01567
1.03068
1.01555
1.0315
1.01701
1.03398
1.02038
1.03773
1.02324
1.03894
1.02406
1.03937
1.02276
1.03488
1.0194
1.03152
1.01491
1.03075
1.0138
1.03027
1.01345
1.03072
1.01397
1.03028
1.0134
1.03007
1.01181
1.02536
1.00599
1.01844
0.999241
1.01055
0.992577
1.00176
0.985123
0.992815
0.980645
0.995328
0.982644
0.989714
0.977439
0.989843
0.975011
0.974767
1.02305
1.02021
1.01948
1.00731
1.01323
1.01074
1.00574
1.01647
1.00937
1.02132
1.01169
1.02224
1.01477
1.02506
1.01403
1.02402
1.01553
1.02421
1.01593
1.02418
1.01541
1.02517
1.01578
1.0252
1.01637
1.02529
1.01624
1.02553
1.01736
1.02721
1.01816
1.02821
1.01829
1.02985
1.0189
1.03099
1.01826
1.03074
1.01731
1.03087
1.01625
1.03086
1.01643
1.03185
1.01763
1.03424
1.02067
1.0373
1.02336
1.03905
1.02472
1.03905
1.0241
1.03566
1.01878
1.03145
1.01543
1.02945
1.01381
1.02969
1.01323
1.03041
1.01398
1.02987
1.01322
1.02851
1.01136
1.02374
1.00621
1.01739
0.998232
1.01025
0.993153
1.00073
0.985325
0.99304
0.982013
0.993509
0.983552
0.990793
0.977169
0.989644
0.973938
0.971647
1.02469
1.03279
1.00803
1.01857
1.01885
1.00235
1.01788
1.00056
1.02416
1.00669
1.02721
1.00982
1.02627
1.01051
1.02388
1.01382
1.02394
1.01527
1.02351
1.01529
1.02447
1.01573
1.02386
1.01573
1.02373
1.01542
1.02533
1.01574
1.02669
1.01579
1.02742
1.01698
1.029
1.01812
1.02989
1.0185