/*--------------------------------*- C++ -*----------------------------------*\
| =========                 |                                                 |
| \\      /  F ield         | OpenFOAM: The Open Source CFD Toolbox           |
|  \\    /   O peration     | Version:  2206                                  |
|   \\  /    A nd           | Website:  www.openfoam.com                      |
|    \\/     M anipulation  |                                                 |
\*---------------------------------------------------------------------------*/
FoamFile
{
    version     2.0;
    format      ascii;
    arch        "LSB;label=32;scalar=64";
    class       volScalarField;
    location    "160";
    object      rhoPrime2Mean;
}
// * * * * * * * * * * * * * * * * * * * * * * * * * * * * * * * * * * * * * //

dimensions      [2 -6 0 0 0 0 0];

internalField   nonuniform List<scalar> 
93840
(
0.0121018
0.00512013
0.0209325
0.000508968
0.00159887
0.0179025
0.00171545
0.00273079
0.00456245
0.0226191
0.000100426
0.00784888
0.00299533
0.00186749
0.0123727
4.64242e-05
0.0044666
0.00328908
0.000482804
0.00239496
0.0157944
0.000164527
0.00337759
0.00419887
0.00690926
0.00329249
0.00313545
0.0126005
0.000174303
0.00333473
0.0031942
0.00166196
0.00131848
0.000800212
0.00148685
0.0238668
0.000218554
0.00131379
0.00418401
0.00440041
0.00143047
0.001024
0.00112913
0.00140395
0.0112033
0.000290074
0.00157494
0.00300653
0.00297498
0.00117334
0.00101858
0.000306343
0.00108867
0.00269289
0.0212264
0.000229292
0.00136459
0.00252006
0.00212433
0.000974483
0.0004357
0.000286539
0.00206018
0.00171374
0.00159672
0.00736281
0.000242536
0.00200661
0.00255427
0.00237997
0.000980124
0.000370256
0.00053999
0.0014704
0.00180348
0.00251628
0.0014464
0.00671093
0.000205921
0.000934246
0.00272126
0.0014003
0.000579715
0.000249265
0.000161429
0.00224052
0.000294304
0.00215798
0.00266825
0.00123249
0.00525376
0.000276337
0.0013977
0.00291564
0.00207614
0.000604973
9.36845e-05
0.00105263
0.0010173
0.000790631
0.00200061
0.00107979
0.000905223
0.00102203
0.00294627
0.000166997
0.000637
0.0030951
0.00136004
0.000325675
0.000140799
0.000210734
0.00116607
0.000261354
0.00208239
0.000557914
0.00123986
0.00194217
0.000856376
0.00344355
0.000216867
0.00110056
0.00315813
0.00141929
0.000227632
7.55711e-05
0.000840236
0.000507907
0.000834098
0.00105909
0.000501698
0.00163215
0.000872553
0.000848754
0.000632115
0.00115052
0.000163924
0.000477637
0.00327496
0.000736792
0.00016516
0.000133421
0.000160257
0.00081815
0.000252652
0.00115768
0.000377597
0.00127136
0.000421898
0.000668474
0.00110333
0.000465976
0.0026519
0.000235432
0.000938629
0.00325777
0.000806698
0.000160827
0.000153507
0.000536685
0.000249332
0.00063185
0.00044467
0.000565529
0.0010236
0.000518038
0.00120095
0.000536328
0.000533305
0.000338392
0.000411445
0.000184234
0.000463412
0.00348559
0.000378139
0.000118053
0.000107082
9.86852e-05
0.00048752
0.000168086
0.000656627
0.000317288
0.000841153
0.000357647
0.000669884
0.00037496
0.000391364
0.000579424
0.000237458
0.00248712
0.000265657
0.000850875
0.0030898
0.000428423
0.000112291
0.000183422
0.000337949
3.08519e-05
0.000435058
0.000250569
0.000553323
0.000410726
0.000451926
0.000827207
0.00045054
0.000891528
0.000274407
0.000332149
0.000175625
0.000227629
0.000296989
0.000567321
0.00320709
0.000260585
9.23264e-05
0.000115826
2.70707e-05
0.000280865
0.000170624
0.000400732
0.000180169
0.000541005
0.000342664
0.000473012
0.000404657
0.000493843
0.000336053
0.000233361
0.000281694
0.000127643
0.0026483
0.00030627
0.000758143
0.00275411
0.000307031
9.07536e-05
0.000159379
0.000209134
7.43834e-05
0.000271597
6.19823e-05
0.00037863
0.000241404
0.000422426
0.000370821
0.000425938
0.000609526
0.000294821
0.000454176
0.000138395
0.000205799
0.000112278
0.00019595
0.000513551
0.00070064
0.0030064
0.000170938
7.36143e-05
0.000112034
6.07628e-05
0.000181837
0.000163817
0.000315716
0.000152627
0.000359556
0.000193299
0.000402442
0.000334065
0.000441601
0.000361058
0.000395988
0.000303901
0.000159724
0.00014741
9.47937e-05
0.00244375
0.000271823
0.000701468
0.00225661
0.000224698
8.40264e-05
0.000142464
0.00010834
0.000137449
0.000166409
3.92774e-05
0.000238795
8.51605e-05
0.00032977
0.000217132
0.000370242
0.000310031
0.000339011
0.000505276
0.000223342
0.000318368
7.85041e-05
0.000113278
9.51222e-05
0.000131182
0.000603171
0.000843677
0.0028249
0.00013735
7.52269e-05
8.80385e-05
8.22321e-05
0.000217311
0.000151522
0.000185496
0.000158375
0.000340257
0.000147325
0.000299913
0.000209556
0.000319518
0.000321173
0.000342565
0.000299875
0.000327517
0.000219125
0.0001184
7.57266e-05
8.80438e-05
0.000971035
0.000230636
0.000711587
0.00153896
0.000221941
7.09638e-05
0.000157955
7.49521e-05
0.000129002
9.40024e-05
9.73647e-05
0.000140358
5.55575e-05
0.000215308
0.000120577
0.000313985
0.000186841
0.000329393
0.000260775
0.00032461
0.000415886
0.000165007
0.000259925
5.24562e-05
8.07814e-05
8.12004e-05
0.00102404
0.000603483
0.000877953
0.00230157
0.000140473
6.34675e-05
5.18917e-05
6.47679e-05
8.25628e-05
0.000117285
0.000203414
0.000156461
0.000165894
0.000133687
0.000288014
0.000148568
0.000291926
0.000209924
0.000278103
0.000294205
0.000201344
0.000266638
0.000287163
0.000154982
0.000103592
2.71631e-05
0.000262129
0.00088603
0.000233428
0.000714456
0.00105793
0.000233761
9.57212e-05
0.000150112
9.97603e-05
0.000135693
8.71753e-05
8.65665e-05
8.37472e-05
7.0266e-05
0.000170896
8.05467e-05
0.000237521
0.000108608
0.000297867
0.000167551
0.000290293
0.000244218
0.000306253
0.000320624
0.00013516
0.000192984
4.09855e-05
4.02736e-05
0.000252313
0.000929852
0.000563055
0.000895574
0.00176572
0.000165615
6.74897e-05
7.27879e-05
6.4766e-05
2.6824e-05
7.42813e-05
0.00011842
0.000119148
0.000146282
0.00012227
0.00015587
9.74506e-05
0.000284476
0.000154445
0.000272362
0.000207162
0.000262956
0.000259069
0.000199678
0.00023443
0.000261577
0.000123531
0.000105287
1.99757e-05
0.000266661
0.000804555
0.000262842
0.00067227
0.000691254
0.000269434
0.000116024
0.000145733
7.63736e-05
0.000130775
9.09838e-05
9.71424e-05
6.46054e-05
8.61901e-05
8.18043e-05
6.40868e-05
0.000210514
6.64369e-05
0.000261959
0.000102524
0.000300109
0.000165738
0.000268799
0.00023952
0.000274611
0.000267834
0.000114865
0.000158804
4.90476e-05
3.21939e-05
0.000263578
0.000714219
0.000500693
0.000960968
0.00137258
0.000164573
6.94137e-05
0.000130696
8.84497e-05
3.46536e-05
8.85534e-05
6.65882e-05
8.88902e-05
0.000130446
0.000122228
0.000129579
0.000100092
0.000166593
0.000114431
0.000290548
0.000150895
0.000248064
0.000202542
0.000255036
0.000219228
0.000218047
0.000190145
0.00024262
0.000101345
0.000110822
2.49796e-05
0.000253368
0.000613043
0.00029325
0.000624193
0.000437399
0.00027458
0.000123241
0.000139262
5.64397e-05
0.000119313
7.23881e-05
0.000129384
5.1347e-05
7.96931e-05
0.000107308
7.42022e-05
0.000117911
5.82598e-05
0.000216943
8.37911e-05
0.000258555
9.96331e-05
0.000288238
0.000151724
0.000271406
0.000231984
0.000267822
0.000224865
0.000104053
0.000135906
5.52087e-05
4.40109e-05
0.000269148
0.000635506
0.000429222
0.000952762
0.0010266
0.000155498
8.05173e-05
0.000183825
9.02248e-05
4.46455e-05
0.000117355
6.24867e-05
0.000108833
8.03028e-05
9.95382e-05
0.000106938
0.000116871
0.000146749
9.40779e-05
0.00018907
0.000102829
0.000285251
0.000148101
0.000240879
0.000204459
0.000252294
0.000185133
0.00019834
0.00015339
0.000245634
8.89917e-05
0.000117292
4.58646e-05
0.000291671
0.00044702
0.000316556
0.000629393
0.000306951
0.00025969
0.000109652
0.000154709
4.79091e-05
0.000148989
4.45201e-05
0.000134029
2.99503e-05
9.76773e-05
5.62929e-05
6.7801e-05
8.8632e-05
6.37234e-05
0.000133328
5.33702e-05
0.000220214
7.85544e-05
0.000267843
9.54343e-05
0.000297447
0.000134231
0.000263197
0.000217736
0.000272067
0.000189076
9.84892e-05
0.000127077
7.04907e-05
5.70388e-05
0.000319111
0.000517804
0.00036811
0.000878824
0.000824706
0.000142602
7.90639e-05
0.000180492
6.98607e-05
3.76031e-05
0.000100099
5.32733e-05
0.000104808
8.90836e-05
0.000106017
8.97753e-05
0.000123244
0.000116611
9.70188e-05
0.0001745
8.46055e-05
0.000195981
0.000102271
0.000284233
0.000145686
0.000239172
0.000198749
0.000276845
0.000177416
0.000205013
0.000129474
0.000247341
7.38273e-05
0.000116221
6.59873e-05
0.000308511
0.000385243
0.000325473
0.000673978
0.00022423
0.000268163
9.3782e-05
0.000142718
5.52254e-05
0.000186721
3.88304e-05
0.000159363
3.74451e-05
0.000104674
4.03517e-05
6.60191e-05
5.85739e-05
5.51655e-05
9.76583e-05
6.08002e-05
0.000166888
5.40859e-05
0.000221971
7.36793e-05
0.000280729
9.01789e-05
0.000289092
0.000118484
0.000251307
0.000130169
0.000272318
0.000158415
9.56471e-05
0.000119037
9.08549e-05
7.434e-05
0.000323774
0.000507136
0.000322828
0.000809209
0.000731928
0.00013939
6.10653e-05
0.000189006
5.78178e-05
1.13317e-05
7.93842e-05
3.26663e-05
0.000108692
6.98275e-05
0.000102586
0.000116135
0.00011098
8.97462e-05
0.000135724
0.000126951
7.80193e-05
0.000180917
8.24388e-05
0.000228843
0.00010329
0.000284574
0.000143426
0.000251601
0.000197369
0.00022024
0.000185152
0.000190855
0.000116423
0.000264316
5.79892e-05
0.000122697
7.98126e-05
0.0003222
0.000425398
0.00031258
0.000711255
0.000162848
0.000261185
7.41301e-05
0.000126171
6.7185e-05
0.000250899
5.91367e-05
0.000209886
8.54592e-05
0.000144321
4.20158e-05
8.63619e-05
4.77952e-05
6.02733e-05
7.02686e-05
5.5062e-05
0.000111267
5.12957e-05
0.000172729
5.84577e-05
0.000214481
7.15073e-05
0.000272267
8.78667e-05
0.000285713
0.000107614
0.000365334
0.000106488
0.000263829
0.000134139
0.000106461
0.000111644
0.000113059
8.01613e-05
0.000317993
0.000569494
0.000295305
0.000703587
0.000708542
0.000124567
7.9446e-05
0.000159545
7.383e-05
1.22513e-05
3.54392e-05
2.2098e-05
0.000109262
3.44751e-05
0.000115846
8.25206e-05
0.000104019
0.00011767
0.000110655
8.39946e-05
0.000143591
0.000125032
8.60906e-05
0.000191694
8.16962e-05
0.000251058
0.000115562
0.000291073
0.000140151
0.000261394
0.000181368
0.000222238
0.000171309
0.000200207
9.92215e-05
0.000258243
4.55197e-05
0.000147708
8.73606e-05
0.000315895
0.000499931
0.000297163
0.00074596
0.00017707
0.000213094
8.31145e-05
8.80718e-05
8.75184e-05
0.000276826
2.1387e-05
0.000300257
0.00012244
0.000192145
6.36489e-05
0.000128761
4.51207e-05
7.65769e-05
4.73029e-05
6.12315e-05
8.51292e-05
6.29513e-05
0.000115759
5.50484e-05
0.000171473
6.52458e-05
0.000203005
7.28482e-05
0.000276176
8.75074e-05
0.000294297
9.99233e-05
0.000365226
9.30172e-05
0.000263747
0.000113136
0.00014678
0.00010147
0.000128903
8.64391e-05
0.000309302
0.000660287
0.000291252
0.000665721
0.000755158
0.000125597
8.89316e-05
0.000147736
8.87582e-05
2.59821e-05
4.19778e-05
4.12196e-05
3.94105e-05
1.22698e-05
0.00011579
4.16704e-05
9.93818e-05
8.22915e-05
9.93468e-05
0.000114489
0.000105552
7.91029e-05
0.00014299
0.000125678
7.82612e-05
0.000205917
9.13992e-05
0.000245769
0.000120813
0.0002751
0.000135167
0.000267743
0.00016754
0.000224181
0.000156933
0.000205508
8.74481e-05
0.000274799
3.73605e-05
0.000175182
9.77331e-05
0.000285432
0.000597094
0.000280433
0.000809801
0.000142745
0.00015195
8.07718e-05
4.55506e-05
0.000114787
0.000246417
2.72168e-05
0.000270144
4.38397e-05
0.000248811
8.22523e-05
0.000155322
5.09116e-05
0.00011487
4.28454e-05
7.51432e-05
4.51398e-05
7.27777e-05
9.16381e-05
7.61766e-05
0.000125112
5.66617e-05
0.000152532
6.80758e-05
0.000212275
7.81322e-05
0.000278058
8.72249e-05
0.000318157
9.56556e-05
0.000353253
8.32528e-05
0.000275813
9.70398e-05
0.000167357
8.35962e-05
0.000155459
9.23524e-05
0.000300297
0.000790746
0.00031154
0.000585719
0.000810569
0.000117515
9.68525e-05
0.000147759
0.000121652
2.6765e-05
6.26513e-05
5.34436e-05
5.12766e-05
2.3636e-05
5.11868e-05
2.83751e-05
9.28516e-05
4.65501e-05
8.67546e-05
7.83857e-05
0.000100731
0.000110432
9.74097e-05
7.99605e-05
0.000142283
0.000129344
7.17911e-05
0.000203663
9.68611e-05
0.000238901
0.000120545
0.000274774
0.000134755
0.000256734
0.00015403
0.000229939
0.000138913
0.000220198
7.41868e-05
0.000296897
3.71093e-05
0.000198246
9.31439e-05
0.000282143
0.000702842
0.000252033
0.000855154
0.000121477
0.000118916
7.41218e-05
3.16424e-05
0.000137954
0.000177929
6.77342e-05
0.000230388
2.714e-05
0.000237882
4.40507e-05
0.000216955
7.54495e-05
0.000173116
4.77621e-05
0.000101806
4.03531e-05
7.92129e-05
4.81664e-05
8.95569e-05
9.37619e-05
8.18948e-05
0.000118571
5.61067e-05
0.000150057
7.27022e-05
0.000217001
8.64578e-05
0.000283382
8.76629e-05
0.000326665
9.05749e-05
0.00034835
7.8793e-05
0.000285287
8.87648e-05
0.000191602
6.93336e-05
0.000191229
9.25041e-05
0.00030671
0.000838067
0.00034119
0.000505734
0.00085934
0.000111792
0.000112058
0.000133603
0.000148522
2.01332e-05
9.36106e-05
4.68355e-05
9.78026e-05
3.28701e-05
4.77875e-05
2.51313e-05
5.26873e-05
3.78546e-05
7.30727e-05
3.59408e-05
7.63218e-05
8.17619e-05
0.000104006
0.000102962
9.42219e-05
8.77796e-05
0.000135777
0.000149284
6.94044e-05
0.000201082
9.92601e-05
0.000233888
0.000122736
0.000270963
0.00013508
0.000253145
0.00014712
0.000231507
0.000124142
0.00023982
6.52328e-05
0.000308851
3.88233e-05
0.000219638
8.17129e-05
0.000337502
0.000745999
0.000233838
0.000897373
0.000119814
0.000108347
7.81016e-05
2.63609e-05
0.000110386
0.000123856
8.38894e-05
0.000173356
4.25935e-05
0.000204155
2.16899e-05
0.000206949
3.25931e-05
0.000212795
6.46161e-05
0.000146386
5.34425e-05
9.35619e-05
3.80638e-05
8.03255e-05
5.86019e-05
0.000102437
9.81686e-05
8.724e-05
0.000123804
5.70242e-05
0.00015398
7.57464e-05
0.000222557
9.21359e-05
0.000284269
8.64509e-05
0.000323672
8.71173e-05
0.000351452
7.39637e-05
0.000304621
7.95843e-05
0.000205685
6.08428e-05
0.000216373
8.16982e-05
0.000368102
0.000901989
0.000375286
0.000420195
0.000876959
0.00011676
0.00013879
0.000112497
0.000192605
1.86396e-05
9.27131e-05
3.05919e-05
0.000120748
2.97629e-05
8.44261e-05
1.91775e-05
3.58301e-05
2.15455e-05
4.91089e-05
3.89924e-05
5.95383e-05
4.55442e-05
7.00003e-05
7.58407e-05
0.000107764
9.00755e-05
9.21481e-05
9.23248e-05
0.000135604
0.000149488
6.82855e-05
0.000190325
0.00010106
0.000226752
0.000125608
0.00026937
0.000139084
0.000256941
0.000143356
0.000239542
0.00011221
0.000260973
6.50946e-05
0.000324417
4.21256e-05
0.000231125
6.80016e-05
0.000401843
0.00073921
0.000224459
0.000904139
0.000130333
0.000105849
7.15212e-05
4.85223e-05
9.12023e-05
0.000105418
8.11448e-05
0.000129771
3.69838e-05
0.000127696
3.07471e-05
0.000186992
2.71842e-05
0.000197686
3.79097e-05
0.000200317
6.80137e-05
0.000123508
5.26016e-05
8.75703e-05
4.22165e-05
8.58161e-05
6.6206e-05
0.000116826
0.000106234
8.8817e-05
0.00012081
6.472e-05
0.000152512
8.1486e-05
0.000221956
9.89041e-05
0.00028167
8.31509e-05
0.000319886
8.22938e-05
0.000352657
7.03531e-05
0.00032201
7.53368e-05
0.000218499
5.51007e-05
0.000232607
7.52164e-05
0.000435747
0.000932678
0.000416217
0.000361067
0.00090399
0.000118531
0.000191576
8.02886e-05
0.000178033
3.22497e-05
0.000115948
4.02748e-05
9.28021e-05
2.72904e-05
6.32528e-05
2.37042e-05
5.33304e-05
1.43387e-05
2.58266e-05
1.92552e-05
3.53087e-05
4.10395e-05
5.02506e-05
5.31022e-05
6.86173e-05
7.24745e-05
0.000109563
8.81019e-05
0.00010656
9.60927e-05
0.000113694
0.000161341
6.72881e-05
0.000192351
0.000104168
0.000220935
0.000130733
0.000267923
0.000136493
0.000266373
0.000141813
0.000250258
0.000103988
0.0002718
6.18182e-05
0.000325304
4.47096e-05
0.000242355
6.38492e-05
0.000471236
0.000721001
0.000209415
0.000866685
0.00016349
0.000111086
5.03568e-05
7.43472e-05
5.45553e-05
9.98235e-05
0.000128866
0.000134102
2.64544e-05
0.000105107
3.41594e-05
0.000116022
4.1557e-05
0.000158305
3.61186e-05
0.000186249
4.3574e-05
0.000170842
6.9238e-05
0.000106207
5.379e-05
8.40677e-05
4.3411e-05
9.28356e-05
7.75578e-05
0.000120684
0.000109298
9.89396e-05
0.000122922
7.07159e-05
0.000147079
8.66286e-05
0.00022273
0.000103961
0.000290081
8.54896e-05
0.000320565
8.15947e-05
0.000351188
6.76608e-05
0.000320081
6.69333e-05
0.000220092
5.25005e-05
0.000245963
7.99514e-05
0.000502587
0.000952884
0.000462252
0.000305458
0.000942593
0.000115067
0.000244539
7.85977e-05
0.00014338
4.66979e-05
0.000121901
4.56943e-05
0.000120288
4.87426e-05
7.11684e-05
1.99043e-05
7.02264e-05
1.75557e-05
3.23411e-05
2.14508e-05
1.99227e-05
2.65956e-05
3.05581e-05
3.56547e-05
4.21938e-05
4.98123e-05
7.06074e-05
7.04014e-05
0.000112785
8.38782e-05
0.000114328
0.000100124
0.0001211
0.000166749
7.62216e-05
0.000190726
0.000108685
0.00021761
0.000139545
0.000264215
0.000135733
0.000272907
0.000138492
0.000260271
9.81889e-05
0.000279971
5.86085e-05
0.000323745
4.76089e-05
0.000254103
6.92924e-05
0.000523993
0.000738548
0.000198588
0.00085322
0.000179976
0.000111108
3.6963e-05
9.1859e-05
3.51276e-05
8.68501e-05
0.000165966
9.3081e-05
5.37773e-05
0.000101963
2.87299e-05
9.32016e-05
3.69579e-05
0.000112561
5.43717e-05
0.000152603
3.53876e-05
0.000172386
5.0477e-05
0.000139409
6.20458e-05
9.52591e-05
5.62509e-05
7.87298e-05
4.47215e-05
9.8815e-05
8.39857e-05
0.00011072
0.000117764
0.000100475
0.000126275
7.86007e-05
0.000145774
9.20764e-05
0.000223187
0.000113643
0.0002879
8.6495e-05
0.000317375
8.56713e-05
0.000345092
6.71595e-05
0.000309199
6.09964e-05
0.000220345
4.88996e-05
0.000266327
8.39261e-05
0.000544543
0.000979077
0.00051265
0.000241761
0.000945458
0.000131096
0.000336215
9.3289e-05
0.000104505
5.93489e-05
9.3951e-05
5.14894e-05
0.000118499
5.39289e-05
8.95853e-05
2.87549e-05
8.22897e-05
1.81426e-05
5.79622e-05
2.24763e-05
2.8851e-05
2.54841e-05
1.80987e-05
2.85765e-05
2.72275e-05
3.69388e-05
3.73189e-05
4.6772e-05
6.77452e-05
6.88343e-05
0.000111346
8.14806e-05
0.000123424
0.000104942
0.000128581
0.000168377
8.42488e-05
0.000189978
0.000110076
0.000216279
0.000143527
0.00026832
0.000133308
0.000278588
0.000136812
0.000266964
8.80714e-05
0.000281124
5.15207e-05
0.000316556
5.00033e-05
0.000256041
6.96663e-05
0.000569151
0.000758288
0.000182505
0.000762654
0.000198727
0.000113377
2.21848e-05
9.57567e-05
4.0545e-05
5.41898e-05
0.000157794
5.61188e-05
7.77419e-05
7.62866e-05
3.86906e-05
8.28683e-05
3.28079e-05
8.15311e-05
2.7401e-05
0.000104686
5.11168e-05
0.000138595
4.43321e-05
0.000160578
5.02468e-05
9.75829e-05
5.91441e-05
8.41578e-05
5.74595e-05
7.70213e-05
5.05589e-05
9.94057e-05
8.60175e-05
0.00011202
0.000128397
0.000101411
0.000134774
8.944e-05
0.000149815
9.79558e-05
0.000228056
0.00011889
0.000292434
9.01133e-05
0.000315723
8.81128e-05
0.000338701
6.76615e-05
0.000294311
5.58237e-05
0.000225703
4.26201e-05
0.000272021
8.25427e-05
0.000587508
0.00102447
0.000544599
0.000183676
0.000891283
0.000136803
0.000387742
0.000100159
8.74317e-05
8.79889e-05
6.70823e-05
5.53508e-05
9.07078e-05
4.94336e-05
5.75042e-05
2.49646e-05
9.57006e-05
2.43844e-05
6.92446e-05
1.88556e-05
5.04147e-05
1.82415e-05
3.04157e-05
3.45545e-05
1.87962e-05
3.34257e-05
2.38177e-05
3.82447e-05
3.21029e-05
4.44939e-05
6.38768e-05
6.60966e-05
0.000112113
8.48478e-05
0.00012696
0.000109129
0.000133936
0.000166855
8.38058e-05
0.00019227
0.000109842
0.000212747
0.000150874
0.000261506
0.000135686
0.000276565
0.000138611
0.000261448
8.09644e-05
0.000274078
4.92238e-05
0.00030995
5.26037e-05
0.000254091
6.68503e-05
0.000609941
0.000814315
0.000164037
0.000677039
0.000177139
0.000114614
1.89473e-05
8.16714e-05
5.67212e-05
2.38161e-05
0.000137574
2.27832e-05
5.91062e-05
6.21201e-05
6.0617e-05
6.61099e-05
3.84915e-05
7.24238e-05
2.61317e-05
7.52075e-05
2.95205e-05
9.2239e-05
4.89055e-05
0.000107767
5.38349e-05
0.000135145
4.45901e-05
9.26362e-05
5.27035e-05
7.21758e-05
5.86031e-05
7.83835e-05
5.61571e-05
0.000103254
9.29861e-05
0.000119423
0.000135855
0.000108585
0.00014316
8.38891e-05
0.000157906
0.000100894
0.000229231
0.000126567
0.000290923
9.17185e-05
0.000315532
9.13649e-05
0.000320993
6.62764e-05
0.000276744
4.80173e-05
0.000224846
3.57555e-05
0.000274226
7.79447e-05
0.000633857
0.00112333
0.000562433
0.000149669
0.000845881
0.000138164
0.000414497
8.23389e-05
8.96553e-05
9.69393e-05
5.49651e-05
6.71198e-05
8.3475e-05
4.66848e-05
5.75778e-05
3.11086e-05
6.08799e-05
2.8814e-05
6.12238e-05
1.86765e-05
6.80567e-05
1.21808e-05
3.69467e-05
2.06151e-05
3.43129e-05
3.64749e-05
1.91208e-05
4.25641e-05
2.29477e-05
5.52006e-05
2.87013e-05
4.45253e-05
6.70934e-05
6.39075e-05
0.00012022
9.22357e-05
0.000132159
0.000122846
0.000142979
0.000172716
0.000101905
0.00018795
0.000112606
0.000214544
0.000155128
0.000263423
0.000138576
0.000273187
0.000140925
0.00025149
7.63283e-05
0.000260077
4.79234e-05
0.00030712
5.27009e-05
0.000252466
6.63268e-05
0.000652361
0.000940138
0.000143668
0.000623049
0.000167979
9.61368e-05
2.18379e-05
8.00293e-05
9.94295e-05
1.48761e-05
0.000123874
1.30364e-05
4.76501e-05
2.99716e-05
4.09346e-05
3.74801e-05
4.56352e-05
4.82055e-05
3.52643e-05
7.30973e-05
2.69368e-05
6.56274e-05
2.79922e-05
6.59894e-05
4.47204e-05
9.78391e-05
5.79284e-05
9.34015e-05
4.50179e-05
8.24928e-05
4.97669e-05
6.21256e-05
6.06394e-05
6.84419e-05
5.76663e-05
0.000105609
0.000101074
0.000126483
0.000149013
0.000110583
0.000150617
9.2375e-05
0.00016849
0.00010604
0.000236349
0.000133263
0.00029124
9.25655e-05
0.000311659
9.66719e-05
0.000328583
6.37802e-05
0.00025612
4.05763e-05
0.000222295
2.95379e-05
0.00027527
7.56546e-05
0.000672434
0.00128129
0.000578323
0.000138999
0.000746841
0.000156409
0.00046468
9.31773e-05
0.000104119
0.000107102
5.82671e-05
6.85361e-05
7.30833e-05
5.27871e-05
6.91959e-05
3.23889e-05
5.56108e-05
3.19347e-05
5.342e-05
2.75777e-05
5.27584e-05
1.77311e-05
6.16443e-05
1.22903e-05
4.09738e-05
2.22759e-05
3.63948e-05
4.40817e-05
2.13796e-05
4.70436e-05
2.08912e-05
5.59034e-05
2.53915e-05
4.46511e-05
6.95458e-05
8.02785e-05
0.000126443
0.000100836
0.000140459
0.000124893
0.000152438
0.000175218
0.000108476
0.000184222
0.000116094
0.000212626
0.000162787
0.000264969
0.000139327
0.000267722
0.000140598
0.000246179
7.38776e-05
0.000251899
4.37723e-05
0.000303065
5.25645e-05
0.000253573
6.43627e-05
0.000690246
0.00108025
0.000123739
0.000539026
0.000110843
0.000100437
2.02776e-05
4.47565e-05
0.000117311
1.74496e-05
0.000120326
2.63711e-05
3.29257e-05
1.77737e-05
4.46983e-05
1.91193e-05
4.02894e-05
3.72086e-05
3.62647e-05
5.01017e-05
3.9671e-05
6.93202e-05
2.69599e-05
6.64007e-05
2.7393e-05
6.25485e-05
4.42392e-05
8.00983e-05
5.2928e-05
8.30486e-05
4.32407e-05
6.55673e-05
5.15125e-05
4.27713e-05
5.94084e-05
6.56099e-05
6.34768e-05
0.000110204
0.000110215
0.000136476
0.000155164
0.000132632
0.000161408
9.87292e-05
0.000176288
0.00011011
0.000242492
0.000143172
0.000291447
9.48563e-05
0.000307055
0.00010576
0.000307492
6.0606e-05
0.000224552
3.36495e-05
0.000220493
2.30276e-05
0.000268292
7.29024e-05
0.000709821
0.00144445
0.000592073
0.000123403
0.000616582
0.000140842
0.000456463
5.96958e-05
0.000120806
9.18513e-05
6.25449e-05
5.58227e-05
7.60687e-05
3.36749e-05
7.4376e-05
3.10595e-05
6.30695e-05
2.61844e-05
4.69214e-05
2.60903e-05
4.16169e-05
2.69391e-05
5.1782e-05
1.80237e-05
5.60884e-05
1.2263e-05
3.98317e-05
2.60504e-05
3.52898e-05
4.80223e-05
2.90519e-05
5.18926e-05
2.32891e-05
5.58963e-05
2.57022e-05
4.73078e-05
7.17237e-05
8.21373e-05
0.000131188
0.000107623
0.000148997
0.000134577
0.000162245
0.000184109
0.000114603
0.00018443
0.000122853
0.000213618
0.000163817
0.000266587
0.000143156
0.000260945
0.000141872
0.000234279
7.11464e-05
0.00023983
3.86876e-05
0.000284324
4.87648e-05
0.000256951
6.43598e-05
0.00073033
0.001204
0.000115545
0.00048359
0.000122014
8.64054e-05
2.42679e-05
3.87873e-05
0.000150716
2.96515e-05
0.000126618
4.33658e-05
1.97993e-05
1.72267e-05
3.73971e-05
1.29692e-05
5.29248e-05
2.13915e-05
3.8839e-05
3.76617e-05
3.49867e-05
5.52746e-05
4.46858e-05
6.65001e-05
3.04615e-05
6.38193e-05
2.42605e-05
6.04299e-05
4.3667e-05
7.06877e-05
5.58882e-05
7.52034e-05
4.71768e-05
3.45914e-05
5.40511e-05
3.23158e-05
6.1565e-05
6.20705e-05
6.83757e-05
0.000114534
0.000115374
0.000145704
0.000164382
0.000144674
0.00017412
0.000103141
0.000178839
0.000113978
0.000250008
0.000145973
0.000296588
9.92206e-05
0.000304612
0.000114016
0.000289009
5.83189e-05
0.000211977
2.67074e-05
0.000216589
1.90446e-05
0.000267973
7.29388e-05
0.000755279
0.00152942
0.000618435
0.000109452
0.000543628
0.000147336
0.000469483
5.24954e-05
0.000173579
6.74257e-05
8.00833e-05
4.21936e-05
5.32698e-05
3.88333e-05
6.60325e-05
3.3816e-05
7.0489e-05
2.45702e-05
5.53689e-05
2.70518e-05
4.69461e-05
2.16142e-05
4.07352e-05
2.30973e-05
5.346e-05
1.95938e-05
5.29187e-05
1.50173e-05
4.02116e-05
3.13058e-05
3.55709e-05
4.5744e-05
2.02922e-05
4.99267e-05
2.39253e-05
5.33517e-05
2.65099e-05
5.03875e-05
7.34999e-05
8.61603e-05
0.000134473
0.000118099
0.000159508
0.000143003
0.000166866
0.000193884
0.000122262
0.000194372
0.000130276
0.000216229
0.000161481
0.000264365
0.000146268
0.000252581
0.00014477
0.000225544
6.86258e-05
0.000224247
3.81227e-05
0.000270242
4.37004e-05
0.0002598
6.58932e-05
0.000754727
0.001273
0.000105458
0.000442304
9.33702e-05
0.000100159
2.18419e-05
3.01159e-05
0.00013657
4.17883e-05
0.000141698
5.90082e-05
2.27108e-05
3.21752e-05
2.75967e-05
1.26917e-05
4.27359e-05
1.39811e-05
4.16717e-05
2.92254e-05
3.45592e-05
2.92019e-05
3.81534e-05
4.6095e-05
4.55499e-05
5.85261e-05
3.14567e-05
6.20808e-05
2.59118e-05
5.4951e-05
4.38691e-05
6.49548e-05
5.53383e-05
7.12145e-05
4.70586e-05
2.94588e-05
5.31946e-05
2.88041e-05
6.10705e-05
6.07387e-05
7.20893e-05
0.000118332
0.000124913
0.000156075
0.000173196
0.000152425
0.00018759
0.000109284
0.000189783
0.000118766
0.000258529
0.000143457
0.000299722
0.00010487
0.000300719
0.00012215
0.000271184
5.64726e-05
0.00020509
2.17619e-05
0.000208902
1.86432e-05
0.000265829
7.52184e-05
0.000784969
0.00159475
0.000614591
0.000108193
0.00048201
0.000134047
0.000490021
4.81402e-05
0.000208095
6.68686e-05
8.2592e-05
5.77029e-05
5.43371e-05
4.71737e-05
5.56559e-05
4.74965e-05
3.8578e-05
2.84055e-05
5.85428e-05
2.25924e-05
5.16807e-05
2.60562e-05
4.6602e-05
1.83081e-05
4.196e-05
1.99419e-05
4.7238e-05
1.91973e-05
4.47009e-05
1.69325e-05
4.61388e-05
3.24733e-05
3.71861e-05
4.69121e-05
2.34922e-05
4.85739e-05
2.22449e-05
5.01338e-05
2.5397e-05
5.41712e-05
7.13928e-05
0.000100857
0.000137175
0.000127939
0.000165475
0.000155047
0.000173684
0.000203886
0.000131991
0.000198527
0.000129411
0.000226514
0.000160591
0.000263012
0.000154633
0.00024699
0.000148615
0.000220866
6.75038e-05
0.000213849
3.64898e-05
0.000256702
4.08825e-05
0.000263885
6.78058e-05
0.000804605
0.00134465
9.58282e-05
0.000432716
6.66369e-05
0.000102319
2.20096e-05
2.49571e-05
0.000112929
5.02647e-05
0.000178994
6.09729e-05
2.43362e-05
4.97583e-05
2.27067e-05
2.50044e-05
2.8288e-05
2.41212e-05
4.39897e-05
2.39728e-05
3.41016e-05
2.92366e-05
3.76949e-05
2.98144e-05
3.49436e-05
4.77282e-05
4.15872e-05
5.9977e-05
2.91821e-05
6.37188e-05
2.50089e-05
5.47421e-05
4.45198e-05
6.30109e-05
5.40401e-05
4.44496e-05
4.47213e-05
2.38457e-05
5.21854e-05
2.59274e-05
6.00113e-05
6.0929e-05
7.97062e-05
0.00012168
0.0001374
0.000163677
0.000185987
0.000157909
0.000199078
0.000115684
0.000201238
0.000121691
0.000272554
0.000138152
0.000303397
0.000109828
0.000295847
0.000131335
0.000252742
5.63131e-05
0.000192156
1.92644e-05
0.000197727
2.05723e-05
0.000259437
7.99655e-05
0.000830353
0.00172488
0.000603833
9.71629e-05
0.000422857
0.000122702
0.000499543
4.05376e-05
0.000217175
5.5662e-05
0.000107855
6.12477e-05
5.31416e-05
4.37262e-05
5.1647e-05
5.30521e-05
4.85973e-05
2.86466e-05
2.88315e-05
2.37318e-05
7.13294e-05
1.86158e-05
4.48787e-05
2.05736e-05
4.73433e-05
1.77055e-05
3.78024e-05
2.01327e-05
4.3707e-05
1.55228e-05
4.45527e-05
1.78626e-05
4.70651e-05
3.26677e-05
3.89957e-05
4.11069e-05
2.85592e-05
5.07108e-05
2.08812e-05
4.8523e-05
2.44984e-05
5.74224e-05
7.16073e-05
0.000106104
0.000138935
0.000139137
0.000171481
0.000170941
0.000179469
0.000214792
0.00013767
0.000209511
0.000128681
0.000232985
0.000157144
0.000263573
0.000163985
0.000240753
0.000153048
0.000214617
6.49906e-05
0.000207087
3.59571e-05
0.000242508
4.039e-05
0.000272064
7.15309e-05
0.000854511
0.00148284
8.75048e-05
0.000425717
4.28715e-05
0.000120893
2.13156e-05
3.2945e-05
9.72e-05
5.47582e-05
0.000175391
5.98519e-05
3.12787e-05
6.02183e-05
3.62191e-05
2.48822e-05
2.3267e-05
2.11975e-05
3.0685e-05
2.26136e-05
4.00981e-05
1.84398e-05
3.6309e-05
2.65508e-05
3.3717e-05
3.0448e-05
3.46988e-05
4.91279e-05
3.90392e-05
6.01694e-05
2.44568e-05
6.18585e-05
2.4088e-05
5.52416e-05
4.06572e-05
6.00618e-05
5.18385e-05
4.15147e-05
4.06372e-05
1.99997e-05
5.01058e-05
2.46208e-05
6.23759e-05
6.22166e-05
8.83091e-05
0.000127018
0.000149425
0.000171646
0.000197147
0.000165846
0.000212721
0.000121402
0.000213168
0.000121912
0.000286235
0.000131481
0.000306392
0.000115213
0.000295102
0.000139964
0.000235532
5.39569e-05
0.000182502
1.80054e-05
0.000193347
2.57745e-05
0.000267444
7.8844e-05
0.000888993
0.00185207
0.000582047
9.38556e-05
0.00037282
9.21465e-05
0.000473324
3.09657e-05
0.000230099
4.62787e-05
0.00011229
5.76161e-05
6.93088e-05
4.0262e-05
5.65262e-05
4.90672e-05
6.44339e-05
3.11126e-05
5.40247e-05
2.00185e-05
2.90309e-05
1.92261e-05
6.71651e-05
1.47581e-05
4.6271e-05
2.0145e-05
4.5419e-05
1.76217e-05
4.70185e-05
1.70534e-05
4.58714e-05
1.53096e-05
4.47186e-05
1.89012e-05
4.88646e-05
3.02771e-05
4.11979e-05
3.68579e-05
2.68398e-05
4.71231e-05
1.87301e-05
4.57785e-05
2.39656e-05
5.94137e-05
7.37506e-05
0.000109944
0.000142323
0.000150591
0.000176863
0.0001873
0.000184602
0.00022702
0.000145021
0.000223345
0.000130233
0.000242656
0.000154618
0.000263557
0.000171838
0.000233337
0.000161674
0.00020448
6.37843e-05
0.000200123
3.61644e-05
0.000227848
4.47006e-05
0.00028049
6.69391e-05
0.00088633
0.00157263
7.76315e-05
0.000411729
3.5285e-05
0.000121622
2.05247e-05
4.02685e-05
7.77832e-05
4.73922e-05
0.000161276
6.8702e-05
4.86545e-05
7.37064e-05
4.59457e-05
4.42562e-05
3.20075e-05
1.79006e-05
2.24958e-05
1.74944e-05
2.97918e-05
2.25744e-05
3.44641e-05
2.02809e-05
3.14312e-05
2.77498e-05
3.38906e-05
3.0684e-05
3.4861e-05
4.33616e-05
3.62753e-05
5.78164e-05
2.06269e-05
6.47375e-05
2.3957e-05
5.62658e-05
3.9397e-05
5.81951e-05
4.97559e-05
3.9157e-05
3.72284e-05
1.64976e-05
4.64231e-05
2.25886e-05
6.19746e-05