/*--------------------------------*- C++ -*----------------------------------*\
| =========                 |                                                 |
| \\      /  F ield         | OpenFOAM: The Open Source CFD Toolbox           |
|  \\    /   O peration     | Version:  2206                                  |
|   \\  /    A nd           | Website:  www.openfoam.com                      |
|    \\/     M anipulation  |                                                 |
\*---------------------------------------------------------------------------*/
FoamFile
{
    version     2.0;
    format      ascii;
    arch        "LSB;label=32;scalar=64";
    class       volVectorField;
    location    "160";
    object      rhoUMean;
}
// * * * * * * * * * * * * * * * * * * * * * * * * * * * * * * * * * * * * * //

dimensions      [1 -2 -1 0 0 0 0];

internalField   nonuniform List<vector> 
93840
(
(1.39629 -1.40823 1.91782e-17)
(0.642235 0.24232 9.18962e-18)
(1.08661 -1.02943 1.59586e-17)
(1.03893 -0.412659 -7.80318e-18)
(0.785105 0.187821 7.43018e-18)
(0.87105 -0.742046 1.81484e-17)
(0.792278 0.262627 5.40561e-17)
(0.939693 -0.186535 3.69919e-18)
(0.728571 0.160328 2.33553e-18)
(0.881967 -0.523175 3.33594e-17)
(0.982593 -0.113776 -3.41578e-17)
(0.943537 0.131671 8.72198e-17)
(1.04975 -0.163538 3.41571e-17)
(0.800953 0.131567 -4.67278e-17)
(0.774459 -0.251814 -5.34303e-18)
(0.824786 0.0542084 -1.43521e-16)
(0.939843 -0.150796 -7.32757e-17)
(0.876414 0.124196 5.37454e-17)
(0.963504 -0.142919 2.63984e-17)
(0.850208 0.0525477 -6.80496e-17)
(0.707747 -0.0185808 3.2707e-18)
(0.862403 -0.0258321 1.27641e-18)
(0.775628 0.13383 -1.56902e-16)
(0.96706 -0.124896 -7.31734e-17)
(0.993536 0.110494 9.56372e-17)
(0.901382 -0.0342123 -4.02669e-18)
(0.912784 0.0172553 4.29474e-17)
(0.752037 0.0922611 4.8776e-18)
(0.78477 0.0481673 5.53403e-17)
(0.858061 -0.144732 5.90513e-17)
(0.82362 0.119497 -1.51981e-16)
(0.91783 -0.109266 -1.89321e-16)
(0.885554 0.0331847 9.78787e-17)
(0.932752 0.0400251 -3.60209e-17)
(0.964438 0.0161368 -2.29609e-17)
(0.761505 0.150872 -1.23321e-17)
(0.848416 -0.0238624 4.80794e-17)
(0.759693 0.134341 5.67655e-17)
(0.890385 -0.0980543 -2.22784e-17)
(0.859134 0.0848729 -1.51913e-16)
(0.825485 -0.0272907 -3.64529e-16)
(0.935585 0.0205206 -7.91488e-17)
(0.931127 0.0449475 -7.8379e-17)
(0.959799 -0.00512661 1.52646e-17)
(0.798991 0.160277 1.07082e-17)
(0.795349 0.0496027 -4.36057e-20)
(0.85451 -0.0779724 5.86559e-17)
(0.763507 0.108037 6.88059e-17)
(0.803083 -0.0843269 1.51769e-16)
(0.823181 0.0239349 1.28267e-16)
(0.884136 0.042356 3.86897e-18)
(0.857788 0.0222762 1.21762e-16)
(0.907405 0.0301593 3.55e-18)
(0.959589 -0.00938475 -8.27579e-18)
(0.784935 0.180267 -2.15637e-18)
(0.873649 -0.0245203 1.13314e-16)
(0.789536 0.060586 1.27096e-17)
(0.880174 -0.0769224 7.89606e-17)
(0.810236 0.0686315 1.06209e-16)
(0.814231 -0.0124493 1.51554e-16)
(0.88955 0.020175 1.22015e-16)
(0.847844 0.0306552 -9.79247e-17)
(0.887619 0.0108619 -5.10976e-17)
(0.917608 0.0414274 -7.15652e-17)
(0.954066 -0.0206356 1.13724e-19)
(0.822818 0.149791 8.41493e-18)
(0.80521 0.04966 -1.06313e-16)
(0.865347 -0.0421252 8.41595e-17)
(0.759679 0.0882842 -3.74315e-17)
(0.842869 -0.0528883 3.68492e-17)
(0.865177 0.0218066 7.18626e-17)
(0.86809 0.0406742 -8.28567e-17)
(0.812748 0.0118059 -3.60184e-17)
(0.858171 0.0294284 -5.66954e-17)
(0.868968 0.00806561 5.87083e-17)
(0.910917 0.042182 -1.26928e-17)
(0.952171 -0.00258229 -6.80824e-18)
(0.805313 0.210224 -3.41238e-19)
(0.846324 -0.0226432 -9.7081e-18)
(0.793392 0.0651288 -1.354e-16)
(0.883699 -0.0543394 1.12563e-16)
(0.84581 0.0480524 3.43649e-17)
(0.882821 -0.00403477 2.39325e-17)
(0.876624 0.016551 -8.38379e-18)
(0.821601 0.0187246 1.3428e-16)
(0.865561 0.0103923 1.70459e-16)
(0.850702 0.0348481 -6.3195e-17)
(0.876373 0.00941301 -2.89239e-17)
(0.917539 0.0396492 -6.66005e-17)
(0.954347 -0.00507022 -5.85912e-18)
(0.845065 0.154644 7.7274e-18)
(0.809735 0.0503149 -9.71739e-17)
(0.841257 -0.0413362 -6.57454e-17)
(0.770776 0.0814086 -1.3914e-16)
(0.838877 -0.0328876 6.73019e-17)
(0.845262 0.0165018 2.06882e-17)
(0.833516 0.0360106 1.04657e-17)
(0.82694 0.00723197 -2.91081e-17)
(0.870884 0.0343147 -4.60112e-17)
(0.832156 0.0120076 -8.73109e-18)
(0.860625 0.0317778 -6.9729e-17)
(0.866397 0.0142706 3.8292e-17)
(0.904127 0.0379067 -1.34267e-17)
(0.95123 -0.00705473 -6.36157e-18)
(0.81595 0.217176 5.49831e-20)
(0.859382 -0.0200108 6.88e-17)
(0.807402 0.0694338 -5.082e-17)
(0.878734 -0.035795 -2.60103e-17)
(0.833931 0.0409108 -2.85185e-16)
(0.865298 0.00290295 -1.82191e-16)
(0.840246 0.0135864 -1.01682e-16)
(0.854131 0.0133577 -6.35294e-17)
(0.886094 0.0160837 -6.76008e-17)
(0.83621 0.0207714 5.74906e-17)
(0.856708 0.0100454 1.73444e-16)
(0.852935 0.0314874 -4.68588e-17)
(0.870683 0.0163666 2.70629e-18)
(0.911839 0.0355016 -6.49314e-17)
(0.950866 -0.00519298 -7.62209e-18)
(0.8614 0.155543 8.37564e-18)
(0.81378 0.0516208 -1.30639e-17)
(0.865405 -0.0359465 1.42784e-16)
(0.781378 0.071328 -3.35334e-17)
(0.808887 -0.0197583 6.92123e-17)
(0.815771 0.0118824 -6.70306e-17)
(0.817358 0.0327375 -1.3076e-17)
(0.824202 0.0052598 9.58647e-17)
(0.835894 0.0345045 3.1329e-17)
(0.830134 0.00814786 -1.61492e-17)
(0.869031 0.0329432 -3.63226e-17)
(0.842515 0.01294 1.65815e-17)
(0.858737 0.0308318 -7.71206e-17)
(0.867211 0.0133384 1.96328e-17)
(0.902734 0.034016 -1.80461e-17)
(0.948528 -0.00707358 -7.62875e-18)
(0.822667 0.21836 4.5636e-19)
(0.866919 -0.0174396 6.32397e-17)
(0.816347 0.0708503 -5.96523e-17)
(0.879379 -0.023903 -1.83502e-17)
(0.829016 0.0320552 -1.3994e-16)
(0.843216 0.00773697 1.01375e-16)
(0.818399 0.0117363 1.65819e-16)
(0.838461 0.00605823 1.64394e-16)
(0.830504 0.0142647 3.57765e-18)
(0.844238 0.00939242 -3.41965e-17)
(0.882494 0.0160031 -7.05769e-17)
(0.847254 0.0227587 1.94824e-17)
(0.851796 0.0139899 1.58167e-16)
(0.854931 0.0306562 -3.39108e-17)
(0.868224 0.0198144 6.844e-18)
(0.907237 0.0338657 -6.05566e-17)
(0.947862 -0.0058394 -9.23789e-18)
(0.873619 0.153775 8.79856e-18)
(0.825012 0.0493702 -6.3896e-17)
(0.860754 -0.0285818 5.91484e-17)
(0.796498 0.0633316 3.18718e-17)
(0.816669 -0.00753888 9.49378e-17)
(0.828312 0.0101471 -1.3201e-17)
(0.822232 0.0297741 -1.08183e-16)
(0.813524 0.00425316 -2.75733e-16)
(0.812833 0.029745 -1.35445e-16)
(0.822436 0.00674643 5.38495e-17)
(0.837368 0.0347697 4.03873e-17)
(0.833178 0.00938787 -8.56068e-18)
(0.867542 0.0312163 -3.19419e-17)
(0.85019 0.0145826 3.97003e-17)
(0.856201 0.0300224 -8.12019e-17)
(0.867122 0.0146153 1.79558e-17)
(0.900807 0.0320396 -2.5368e-17)
(0.945299 -0.00707078 -9.17151e-18)
(0.827268 0.216252 1.51612e-19)
(0.870075 -0.0141911 3.74543e-17)
(0.82908 0.0710088 -1.01298e-16)
(0.887249 -0.0137013 9.72647e-17)
(0.831911 0.0255547 2.0927e-16)
(0.858063 0.0119048 1.90999e-16)
(0.841373 0.0109969 -6.03192e-17)
(0.844576 0.00185957 -9.44327e-18)
(0.82281 0.0117328 6.14685e-17)
(0.836299 0.00548909 1.89099e-16)
(0.828896 0.0162924 3.73943e-17)
(0.839924 0.0103452 -2.39619e-17)
(0.878735 0.018624 -7.37444e-17)
(0.853827 0.0249106 -2.32377e-18)
(0.849557 0.0164382 1.53653e-16)
(0.85811 0.0295066 -2.65922e-17)
(0.867562 0.0216774 5.47152e-18)
(0.904319 0.0334626 -5.21599e-17)
(0.944414 -0.00573664 -1.03135e-17)
(0.882674 0.150632 8.81017e-18)
(0.81972 0.0475169 -7.91772e-17)
(0.874581 -0.0210807 3.19297e-17)
(0.811111 0.0548891 -1.09873e-16)
(0.828917 2.3341e-05 -2.71007e-17)
(0.842583 0.0094042 8.50325e-18)
(0.83208 0.027157 -5.82138e-17)
(0.831293 0.00613035 5.32798e-17)
(0.835428 0.0276589 -2.15346e-17)
(0.821742 0.00721876 -2.46037e-16)
(0.814972 0.0301636 -1.78029e-16)
(0.822036 0.00781494 2.16517e-17)
(0.837676 0.0352962 4.19729e-17)
(0.836269 0.0110983 -7.51927e-18)
(0.86516 0.0292184 -2.81108e-17)
(0.854265 0.0161407 4.77499e-17)
(0.854777 0.0299246 -8.12513e-17)
(0.866563 0.016209 1.84706e-17)
(0.899794 0.0310563 -3.23122e-17)
(0.941969 -0.00636798 -1.04761e-17)
(0.830406 0.2138 1.13185e-19)
(0.872502 -0.0146 1.6215e-17)
(0.827139 0.0695806 -2.88063e-18)
(0.890053 -0.00349963 7.85815e-17)
(0.840756 0.0209514 -1.04183e-16)
(0.862933 0.0160145 -1.22463e-16)
(0.84232 0.011235 9.53315e-17)
(0.846955 0.000714635 3.02913e-16)
(0.851043 0.00959759 1.50964e-16)
(0.850088 0.00304028 -4.98779e-18)
(0.826081 0.0133296 2.13678e-17)
(0.835144 0.00655523 1.84858e-16)
(0.82849 0.0174323 5.86218e-17)
(0.837111 0.0105934 -9.38856e-18)
(0.872464 0.0197147 -7.05378e-17)
(0.86031 0.0272756 -2.3576e-17)
(0.850674 0.0186983 1.5812e-16)
(0.860532 0.02931 -2.42937e-17)
(0.86705 0.0229436 6.02356e-18)
(0.901751 0.0333537 -4.48693e-17)
(0.941032 -0.00518616 -1.18544e-17)
(0.890183 0.146892 9.63774e-18)
(0.815424 0.0494032 2.78118e-16)
(0.871054 -0.0142043 9.4728e-17)
(0.811344 0.0454254 -1.92177e-17)
(0.837574 0.0054608 3.77824e-17)
(0.851267 0.0106611 -3.93902e-17)
(0.849718 0.0253685 -1.70483e-17)
(0.856148 0.00473194 -6.94012e-17)
(0.840658 0.0269496 -1.0637e-16)
(0.836902 0.00845117 5.94225e-17)
(0.839584 0.0284376 2.89447e-17)
(0.825794 0.00903557 -2.11909e-16)
(0.817256 0.030816 -1.94344e-16)
(0.821193 0.00868079 2.04811e-19)
(0.837881 0.034915 3.70434e-17)
(0.842116 0.0144918 -1.80851e-17)
(0.863733 0.0287413 -2.75259e-17)
(0.855931 0.0178165 4.9214e-17)
(0.853499 0.0295388 -7.85938e-17)
(0.865924 0.01739 1.89272e-17)
(0.8989 0.0308637 -3.44094e-17)
(0.938635 -0.00609545 -1.24656e-17)
(0.832728 0.211625 6.15649e-19)
(0.86885 -0.0143281 -4.73555e-16)
(0.830423 0.0674627 1.06844e-16)
(0.891181 0.00633019 -8.32378e-17)
(0.846906 0.0180123 -2.35771e-16)
(0.870194 0.0191749 1.21929e-17)
(0.854297 0.0130543 -3.24946e-17)
(0.865203 0.00016583 -1.20618e-16)
(0.859377 0.00928672 -1.36995e-16)
(0.850981 0.000601008 2.04429e-16)
(0.852285 0.0112005 1.83178e-16)
(0.852337 0.0045114 9.9297e-18)
(0.828511 0.0145198 -4.60598e-19)
(0.834675 0.00740755 1.77109e-16)
(0.82858 0.0184356 7.25154e-17)
(0.835179 0.0107732 1.03979e-18)
(0.865652 0.0189711 -5.81324e-17)
(0.86303 0.0265323 -3.7103e-17)
(0.85183 0.0199601 1.61002e-16)
(0.862155 0.0290643 -2.07344e-17)
(0.86612 0.024252 6.69018e-18)
(0.899888 0.0336616 -4.60792e-17)
(0.937581 -0.00481546 -1.27051e-17)
(0.89742 0.144161 9.52756e-18)
(0.82379 0.0517226 1.42911e-16)
(0.85504 -0.00787479 -5.35326e-16)
(0.81799 0.0385609 5.72111e-17)
(0.851947 0.0106366 7.26411e-17)
(0.860319 0.0129568 9.32778e-18)
(0.863893 0.0237433 7.07631e-17)
(0.862379 0.00410356 -1.07107e-16)
(0.852227 0.0255083 -6.39997e-17)
(0.862267 0.00705364 -5.14988e-17)
(0.845062 0.0277943 -1.23652e-16)
(0.840248 0.010178 3.92914e-17)
(0.842163 0.0287092 5.42532e-17)
(0.828459 0.0105599 -1.84439e-16)
(0.81936 0.0314648 -2.02799e-16)
(0.82091 0.01024 -1.55803e-17)
(0.837219 0.0346203 3.614e-17)
(0.844497 0.0159145 -1.8322e-17)
(0.864093 0.0293836 -2.86142e-17)
(0.857375 0.0193963 5.37251e-17)
(0.854185 0.0296742 -7.92216e-17)
(0.865491 0.018721 1.82208e-17)
(0.897724 0.0308267 -3.30408e-17)
(0.935191 -0.00647371 -1.30388e-17)
(0.835541 0.210262 2.6808e-18)
(0.87721 -0.0116473 9.07561e-17)
(0.836483 0.066037 2.56328e-16)
(0.89669 0.0174127 -3.2568e-16)
(0.852624 0.0165101 1.90042e-16)
(0.879117 0.0213574 1.42613e-16)
(0.862479 0.0148726 -9.00987e-17)
(0.870796 8.34725e-05 -1.26741e-16)
(0.862094 0.00909251 -2.8794e-17)
(0.866641 -0.000820433 -9.19e-17)
(0.862655 0.011169 -1.77355e-16)
(0.852921 0.000644934 1.59259e-16)
(0.85158 0.0119122 1.89063e-16)
(0.853656 0.00555477 2.5015e-17)
(0.83038 0.0153328 -1.43374e-17)
(0.834541 0.00833112 1.68718e-16)
(0.828688 0.0193892 8.09797e-17)
(0.834416 0.0129914 1.03255e-17)
(0.862176 0.0204822 -5.50889e-17)
(0.864823 0.0266659 -4.90626e-17)
(0.852683 0.021391 1.6094e-16)
(0.862391 0.0290376 -1.43294e-17)
(0.864945 0.0255808 8.14416e-18)
(0.898314 0.0338846 -4.85267e-17)
(0.934611 -0.0062259 -1.40046e-17)
(0.875921 0.173162 5.37105e-18)
(0.824706 0.0523133 1.31188e-16)
(0.855928 -0.00205001 5.83666e-17)
(0.824486 0.033021 2.71648e-16)
(0.871591 0.0144646 -4.49654e-16)
(0.869515 0.0154391 -2.72934e-16)
(0.875756 0.0235332 -1.8499e-16)
(0.875068 0.00472106 -1.08602e-16)
(0.873833 0.0239572 9.18878e-17)
(0.871326 0.00621695 -5.53398e-17)
(0.854741 0.0256999 -7.28554e-17)
(0.864179 0.00842123 -4.85919e-17)
(0.847186 0.0290568 -1.32771e-16)
(0.84297 0.0117433 2.73666e-17)
(0.844279 0.0287714 6.80077e-17)
(0.830408 0.0119019 -1.62005e-16)
(0.821165 0.0316844 -2.06003e-16)
(0.820551 0.011408 -2.84357e-17)
(0.836589 0.0332767 3.39831e-17)
(0.846482 0.0186151 -2.36588e-17)
(0.864603 0.0298369 -2.81798e-17)
(0.858761 0.0208395 5.55852e-17)
(0.85519 0.0298744 -8.25158e-17)
(0.864954 0.0199989 1.71025e-17)
(0.896861 0.0311754 -3.26945e-17)
(0.933311 -0.0120628 -1.41549e-17)
(0.872779 0.163532 5.21346e-18)
(0.869678 -0.00852345 -2.14123e-17)
(0.836139 0.0632375 1.36489e-16)
(0.876714 0.0279411 7.25668e-17)
(0.856347 0.0157381 4.63216e-16)
(0.88034 0.0226081 -7.86977e-18)
(0.857758 0.0163457 1.06215e-16)
(0.869032 0.0021842 3.55555e-16)
(0.867331 0.0108534 3.23936e-16)
(0.873611 0.000100875 -1.17751e-17)
(0.865045 0.0110042 -1.39803e-17)
(0.867353 -0.000360191 -6.99299e-17)
(0.865182 0.0123175 -1.9679e-16)
(0.854721 0.000717665 1.25412e-16)
(0.850911 0.0125291 1.95293e-16)
(0.854618 0.00699994 4.1269e-17)
(0.832123 0.0159504 -2.95604e-17)
(0.834374 0.00908672 1.61335e-16)
(0.828437 0.0201709 8.93683e-17)
(0.833726 0.0145817 1.94762e-17)
(0.858142 0.0202154 -4.55036e-17)
(0.866191 0.0266217 -6.02954e-17)
(0.853516 0.0226884 1.62792e-16)
(0.862277 0.0287437 -8.82194e-18)
(0.864274 0.0261772 1.01639e-17)
(0.897431 0.0352587 -4.64124e-17)
(0.923944 -0.00559561 -1.61241e-17)
(0.882016 0.154032 5.11741e-18)
(0.815998 0.0519465 -4.33205e-16)
(0.84547 0.00357931 -1.9616e-16)
(0.817514 0.0279485 2.21324e-17)
(0.87211 0.0170078 -1.84457e-17)
(0.862389 0.0162341 3.81888e-16)
(0.867624 0.0226764 3.95122e-16)
(0.861864 0.0047602 2.96908e-16)
(0.864559 0.0222176 -1.54952e-18)
(0.873977 0.00515652 -1.17556e-16)
(0.87454 0.0238334 8.08846e-17)
(0.874238 0.00769731 -3.07959e-17)
(0.856191 0.0258651 -7.51547e-17)
(0.86455 0.00902405 -5.34159e-17)
(0.848452 0.0302002 -1.37175e-16)
(0.845255 0.0135682 1.91408e-17)
(0.846012 0.0286023 7.81771e-17)
(0.831785 0.0129724 -1.4315e-16)
(0.822797 0.0315739 -2.06653e-16)
(0.820635 0.012891 -3.91157e-17)
(0.835782 0.0317615 3.24925e-17)
(0.847767 0.0194526 -2.47346e-17)
(0.864815 0.0301062 -3.01437e-17)
(0.859731 0.0221262 5.91856e-17)
(0.856438 0.0300091 -8.05315e-17)
(0.864365 0.0222342 1.78603e-17)
(0.899785 0.032928 -3.31414e-17)
(0.91886 0.00374868 -1.43714e-17)
(0.87275 0.165884 5.73269e-18)
(0.864181 -0.00682491 5.92903e-16)
(0.822675 0.0598599 -1.6054e-16)
(0.862113 0.0356572 -4.83654e-17)
(0.844454 0.0168785 1.43073e-16)
(0.866638 0.02286 -1.18475e-16)
(0.839939 0.0174085 -1.68407e-16)
(0.858309 0.00470095 -3.45638e-16)
(0.857982 0.0127745 -3.96419e-16)
(0.866406 0.00150891 6.51243e-17)
(0.867841 0.0123216 3.25263e-16)
(0.874582 0.000541827 3.55365e-17)
(0.867215 0.0125118 -5.88958e-18)
(0.867738 0.0004636 -5.20567e-17)
(0.867711 0.0135519 -1.98534e-16)
(0.855382 0.00561039 5.99136e-17)
(0.850274 0.0125117 1.94735e-16)
(0.8549 0.00811388 5.43121e-17)
(0.833512 0.0168504 -3.80387e-17)
(0.834324 0.00968675 1.51742e-16)
(0.828003 0.0207771 8.99355e-17)
(0.83331 0.0162318 2.7007e-17)
(0.856294 0.0213703 -3.99893e-17)
(0.867082 0.0269799 -6.87707e-17)
(0.854472 0.0239842 1.61592e-16)
(0.861729 0.028649 -6.15168e-18)
(0.863707 0.0255066 1.09193e-17)
(0.899645 0.0297368 -4.46033e-17)
(0.921513 0.00296851 -1.64234e-17)
(0.883138 0.154976 5.64142e-18)
(0.818044 0.0513349 -2.17776e-16)
(0.836046 0.00793247 7.21968e-16)
(0.803387 0.0234142 -1.53677e-18)
(0.856314 0.0189283 -1.09189e-16)
(0.847163 0.0160768 -8.20383e-17)
(0.852426 0.0231569 5.89847e-17)
(0.857609 0.00701534 3.4802e-17)
(0.868901 0.0209974 2.01194e-16)
(0.864153 0.00549866 3.62825e-16)
(0.863351 0.0217744 8.96647e-17)
(0.872984 0.00672624 -1.15488e-16)
(0.87455 0.0232294 7.89344e-17)
(0.875676 0.0091542 -1.43002e-17)
(0.857542 0.0258945 -7.43163e-17)
(0.864524 0.00943908 -5.24006e-17)
(0.852196 0.0252955 -1.00235e-16)
(0.845808 0.0139469 1.72e-17)
(0.847369 0.0283461 8.36818e-17)
(0.832964 0.013865 -1.25699e-16)
(0.824361 0.0312763 -2.07479e-16)
(0.821585 0.0148712 -3.79845e-17)
(0.835065 0.0304758 3.12769e-17)
(0.847767 0.0205556 -2.35538e-17)
(0.865067 0.0301566 -3.08445e-17)
(0.860236 0.0238318 6.52732e-17)
(0.857474 0.0305806 -8.12634e-17)
(0.8635 0.0251731 1.60106e-17)
(0.896211 0.0314012 -3.29443e-17)
(0.921585 0.00267073 -1.69707e-17)
(0.875011 0.164794 6.19347e-18)
(0.865174 -0.0061367 -6.02556e-17)
(0.815921 0.0563474 -5.82788e-16)
(0.841799 0.0413138 3.51625e-16)
(0.822872 0.0189101 -3.8771e-16)
(0.852535 0.0228487 -5.36972e-16)
(0.823141 0.018669 -5.73314e-16)
(0.848766 0.00826874 -5.64993e-16)
(0.846511 0.0147722 -3.46323e-16)
(0.854373 0.00235374 -3.80207e-16)
(0.856948 0.0140398 -4.91009e-16)
(0.865262 0.00149801 -4.83432e-17)
(0.868296 0.0131078 3.03769e-16)
(0.87475 0.00133581 5.65204e-17)
(0.869116 0.0136921 2.96214e-18)
(0.867881 0.00152857 -3.64289e-17)
(0.868447 0.0150392 -2.0023e-16)
(0.856065 0.00677296 3.60155e-17)
(0.850791 0.0142218 1.8506e-16)
(0.855148 0.00902374 6.7172e-17)
(0.834726 0.0177775 -4.57436e-17)
(0.833995 0.0111431 1.29297e-16)
(0.827763 0.0208883 8.30277e-17)
(0.832874 0.0170161 3.23968e-17)
(0.854267 0.0226372 -3.47171e-17)
(0.867561 0.027222 -7.70254e-17)
(0.855797 0.0246504 1.57402e-16)
(0.861856 0.0285818 -4.3337e-18)
(0.863145 0.0277619 1.22009e-17)
(0.897149 0.0291912 -4.44158e-17)
(0.920814 0.00290813 -1.60138e-17)
(0.885789 0.1523 6.07547e-18)
(0.826232 0.0505312 2.52402e-16)
(0.828769 0.01133 1.87295e-16)
(0.782916 0.0189491 -4.50427e-16)
(0.83388 0.020411 6.39058e-16)
(0.829465 0.0158864 5.81415e-16)
(0.831329 0.0248287 4.53608e-16)
(0.845666 0.00939893 4.4287e-16)
(0.845663 0.0214749 5.00208e-16)
(0.852232 0.00654633 2.42494e-16)
(0.866345 0.0202819 1.96234e-16)
(0.865012 0.00687041 3.71643e-16)
(0.862713 0.0215096 1.40167e-16)
(0.872062 0.00809674 -1.03378e-16)
(0.874407 0.0227097 7.69391e-17)
(0.876518 0.0103385 -3.43333e-18)
(0.858725 0.024961 -6.91923e-17)
(0.865528 0.0110432 -5.45755e-17)
(0.852643 0.0251828 -9.84105e-17)
(0.846484 0.014361 1.52757e-17)
(0.848335 0.0282276 8.88279e-17)
(0.833951 0.0148994 -1.12802e-16)
(0.825873 0.0300756 -1.89615e-16)
(0.82189 0.0160337 -4.44499e-17)
(0.834316 0.0302635 2.9982e-17)
(0.848169 0.0217736 -2.256e-17)
(0.865184 0.0302342 -3.33827e-17)
(0.861132 0.0252118 6.80502e-17)
(0.858011 0.0307602 -7.78687e-17)
(0.863053 0.0267645 1.68073e-17)
(0.894437 0.030772 -3.31055e-17)
(0.919827 0.00330812 -1.88217e-17)
(0.877514 0.161858 6.60115e-18)
(0.870717 -0.00523536 -5.52694e-16)
(0.827838 0.0519819 1.18291e-16)
(0.827465 0.0443383 1.65282e-16)
(0.802275 0.0210749 -4.68772e-16)
(0.836875 0.023367 2.97329e-16)
(0.80967 0.0195435 2.60404e-16)
(0.837997 0.0108653 2.81012e-16)
(0.827994 0.0172008 -1.10974e-16)
(0.843722 0.0041152 -4.97414e-16)
(0.846619 0.0164568 -3.53883e-16)
(0.853446 0.00263703 -3.5849e-16)
(0.856565 0.0150481 -5.18958e-16)
(0.864759 0.00216745 -1.15278e-16)
(0.868602 0.0142867 2.80469e-16)
(0.874778 0.00234907 7.19355e-17)
(0.870485 0.0146533 8.13071e-18)
(0.868078 0.0028351 -2.76452e-17)
(0.868938 0.0154089 -1.95973e-16)
(0.857446 0.00789927 1.46767e-17)
(0.85061 0.0148099 1.74486e-16)
(0.855426 0.00976955 7.49512e-17)
(0.835739 0.0185317 -4.71594e-17)
(0.833857 0.0120286 1.10648e-16)
(0.827155 0.0217794 7.85466e-17)
(0.832027 0.0180702 3.76116e-17)
(0.853049 0.0234128 -3.20675e-17)
(0.867823 0.0275422 -8.34086e-17)
(0.856505 0.0258459 1.55237e-16)
(0.861713 0.0285515 -2.38729e-18)
(0.862727 0.0290487 1.10396e-17)
(0.89594 0.0291302 -4.39978e-17)
(0.918925 0.00360609 -1.82779e-17)
(0.888316 0.148961 3.40411e-18)
(0.819621 0.0494609 2.04537e-16)
(0.829911 0.014444 -6.57647e-16)
(0.788736 0.0154701 1.62996e-16)
(0.822552 0.0227837 1.2338e-16)
(0.823401 0.0166867 -8.6851e-16)
(0.822921 0.0267231 -7.7509e-16)
(0.838862 0.0129285 -5.95025e-16)
(0.832101 0.0233419 -4.48245e-16)
(0.845851 0.00974034 2.15672e-17)
(0.845461 0.0204961 4.3724e-16)
(0.850673 0.00747904 2.72859e-16)
(0.864655 0.0198549 1.87033e-16)
(0.865223 0.00765576 3.69335e-16)
(0.861798 0.0209336 1.5471e-16)
(0.870916 0.00925549 -9.40473e-17)
(0.874181 0.0225572 7.3448e-17)
(0.876977 0.0117847 3.87867e-18)
(0.859597 0.0252777 -6.70132e-17)
(0.866518 0.012318 -5.95725e-17)
(0.853104 0.0254072 -1.0169e-16)
(0.847434 0.0155004 1.58122e-17)
(0.849233 0.0280061 9.05131e-17)
(0.83518 0.0160162 -1.0212e-16)
(0.826973 0.0297152 -1.8237e-16)
(0.82316 0.016799 -4.11669e-17)
(0.833662 0.0294819 2.93114e-17)
(0.848249 0.0228531 -2.03382e-17)
(0.865246 0.0302393 -3.79164e-17)
(0.861589 0.0263314 7.1487e-17)
(0.858584 0.0308609 -7.88713e-17)
(0.862763 0.0277568 1.52173e-17)
(0.893321 0.0305937 -2.87971e-17)
(0.917726 0.00389992 -1.93119e-17)
(0.880503 0.157483 9.72268e-18)
(0.86436 -0.00386853 -2.73864e-17)
(0.821854 0.0469393 3.96104e-16)
(0.818271 0.0451212 -4.93166e-16)
(0.79009 0.0232037 3.523e-16)
(0.828976 0.0247915 8.39968e-16)
(0.808092 0.0204127 6.4482e-16)
(0.834844 0.0139197 5.75891e-16)
(0.824695 0.0195653 6.17618e-16)
(0.840027 0.00716377 6.79207e-16)
(0.831797 0.0185597 1.41103e-16)
(0.842428 0.00362552 -4.19631e-16)
(0.846697 0.0170843 -3.55891e-16)
(0.852924 0.00312647 -3.36597e-16)
(0.856339 0.0157022 -5.27322e-16)
(0.865274 0.00280949 -1.53562e-16)
(0.868744 0.0146104 2.66646e-16)
(0.875355 0.00329247 8.74391e-17)
(0.871704 0.014988 1.40778e-17)
(0.868297 0.00348554 -1.75164e-17)
(0.868802 0.0154678 -1.91782e-16)
(0.858357 0.00863359 -2.59761e-19)
(0.85037 0.0156924 1.68751e-16)
(0.855401 0.0105869 8.49194e-17)
(0.836676 0.0192506 -5.12204e-17)
(0.833939 0.0127513 1.01717e-16)
(0.826637 0.022823 6.90026e-17)
(0.831837 0.0202398 4.06958e-17)
(0.851565 0.0246151 -2.80851e-17)
(0.86796 0.0277811 -8.72506e-17)
(0.857461 0.0271247 1.534e-16)
(0.861662 0.0284269 1.61996e-18)
(0.862519 0.0300825 1.27015e-17)
(0.895192 0.0291878 -5.00367e-17)
(0.916434 0.00476219 -1.96148e-17)
(0.890801 0.145104 4.07686e-18)
(0.822644 0.0479103 1.06412e-16)
(0.823427 0.0166104 -3.74646e-17)
(0.792219 0.0131279 2.88564e-16)
(0.819767 0.0249436 -7.80591e-16)
(0.822548 0.0179617 -3.92544e-16)
(0.818805 0.0281848 1.16651e-16)
(0.831715 0.0158307 5.06939e-17)
(0.82272 0.025728 -1.67048e-16)
(0.840722 0.0124203 -4.51373e-16)
(0.831947 0.0220083 -5.46277e-16)
(0.845973 0.0103475 -1.22195e-16)
(0.845864 0.0202227 3.97796e-16)
(0.849667 0.00807469 2.90291e-16)
(0.863264 0.0197386 1.61987e-16)
(0.864977 0.00861722 3.60341e-16)
(0.861587 0.0209478 1.74469e-16)
(0.870055 0.0103217 -8.50509e-17)
(0.873801 0.0223711 6.79632e-17)
(0.877241 0.0129145 9.06167e-18)
(0.860258 0.0251864 -6.46834e-17)
(0.867538 0.0136538 -6.24473e-17)
(0.853598 0.0254276 -1.02536e-16)
(0.848436 0.0162696 1.37051e-17)
(0.850025 0.027816 9.34273e-17)
(0.83615 0.0171888 -9.00794e-17)
(0.82775 0.0295804 -1.81584e-16)
(0.824148 0.0197485 -2.67596e-17)
(0.832867 0.0276353 3.05529e-17)
(0.848184 0.0235992 -1.85078e-17)
(0.865227 0.030202 -3.9829e-17)
(0.862124 0.0274299 7.43632e-17)
(0.858893 0.0308819 -7.98423e-17)
(0.862293 0.0285908 1.31191e-17)
(0.892627 0.0307667 -2.72306e-17)
(0.915028 0.00535425 -2.03513e-17)
(0.883521 0.152898 1.27049e-17)
(0.857689 -0.0022912 1.36528e-16)
(0.821255 0.0420807 3.07901e-16)
(0.810943 0.0456315 3.21392e-17)
(0.789969 0.024782 3.10747e-16)
(0.81823 0.0268421 -4.78025e-16)
(0.802532 0.0214813 -4.64993e-16)
(0.823754 0.0165787 -3.27849e-16)
(0.814491 0.0207354 -2.2384e-16)
(0.827901 0.00993548 5.28233e-17)
(0.826814 0.0205751 4.38936e-16)
(0.839954 0.0061411 7.21228e-16)
(0.833729 0.0192541 2.563e-16)
(0.841841 0.00408602 -3.60122e-16)
(0.846542 0.0173715 -3.53936e-16)
(0.853085 0.0036347 -3.03683e-16)
(0.85616 0.0160621 -5.171e-16)
(0.864961 0.00337736 -1.92165e-16)
(0.868804 0.0150542 2.4608e-16)
(0.874982 0.00486688 9.50948e-17)
(0.872917 0.0152906 1.88211e-17)
(0.8678 0.00693995 -1.31558e-17)
(0.868754 0.0154792 -1.85693e-16)
(0.858811 0.00972041 -1.78832e-17)
(0.850457 0.0164202 1.65936e-16)
(0.855371 0.0113018 9.07835e-17)
(0.837615 0.0200511 -5.33236e-17)
(0.833883 0.0131901 9.57044e-17)
(0.826682 0.0217714 5.91866e-17)
(0.830868 0.0208937 4.26416e-17)
(0.850231 0.0257601 -2.72255e-17)
(0.867708 0.0279451 -9.45051e-17)
(0.858364 0.0281369 1.5022e-16)
(0.861598 0.0282682 8.11392e-18)
(0.862303 0.0304932 1.50726e-17)
(0.89456 0.0293581 -4.74392e-17)
(0.913788 0.00604017 -2.0812e-17)
(0.893083 0.141295 5.02848e-18)
(0.820281 0.0460097 6.1271e-17)
(0.827298 0.0184002 -3.88571e-17)
(0.79979 0.011534 1.45192e-16)
(0.809234 0.0268148 4.00565e-17)
(0.811921 0.0199718 7.72345e-16)
(0.814608 0.0292316 4.76343e-16)
(0.829478 0.0187582 1.4256e-17)
(0.825308 0.0270776 4.63291e-17)
(0.837875 0.0149064 2.01557e-16)
(0.82325 0.0233928 -9.76626e-18)
(0.841147 0.0125993 -3.65744e-16)
(0.832028 0.0215682 -5.72522e-16)
(0.845621 0.0103893 -2.03514e-16)
(0.845943 0.0200988 3.51115e-16)
(0.848913 0.00873431 2.99564e-16)
(0.862307 0.0196156 1.5456e-16)
(0.864651 0.00959071 3.33784e-16)
(0.861563 0.0208758 1.88194e-16)
(0.869455 0.0114624 -7.28678e-17)
(0.874653 0.0216847 6.83024e-17)
(0.877227 0.0138351 1.28561e-17)
(0.861775 0.0226874 -5.85783e-17)
(0.86839 0.0147914 -6.86454e-17)
(0.854637 0.0249339 -9.88314e-17)
(0.848607 0.0170935 9.47223e-18)
(0.850527 0.0276611 9.68876e-17)
(0.837152 0.0180786 -8.27465e-17)
(0.828413 0.0294393 -1.79652e-16)
(0.824114 0.0206132 -3.45232e-17)
(0.832563 0.027284 2.91102e-17)
(0.84822 0.0245016 -1.48608e-17)
(0.865247 0.0303116 -4.02575e-17)
(0.862593 0.0284733 7.75276e-17)
(0.859122 0.0309063 -8.3217e-17)
(0.862041 0.0297037 1.12689e-17)
(0.891958 0.0302783 -2.90954e-17)
(0.912364 0.00677875 -2.17007e-17)
(0.886471 0.148271 9.52507e-18)
(0.865022 -0.000742672 -3.21101e-16)
(0.832638 0.0380284 -1.85953e-16)
(0.826128 0.0458179 -2.24191e-16)
(0.806305 0.0266333 1.15309e-16)
(0.822628 0.0289574 -7.33624e-17)
(0.819521 0.0230493 1.21401e-16)
(0.840085 0.0192498 1.31772e-16)
(0.835292 0.0218751 6.70159e-17)
(0.834162 0.0133492 -7.62048e-17)
(0.82173 0.0223578 -2.47099e-16)
(0.827226 0.00872558 -5.49128e-17)
(0.827486 0.0211005 3.43883e-16)
(0.839814 0.00608854 7.19978e-16)
(0.834762 0.0195315 3.25711e-16)
(0.841774 0.0045432 -3.04917e-16)
(0.846239 0.0175405 -3.49088e-16)
(0.853089 0.00404016 -2.89464e-16)
(0.856079 0.0154833 -4.79206e-16)
(0.864579 0.00389946 -2.2041e-16)
(0.868572 0.0154884 2.27358e-16)
(0.874738 0.0059192 1.02634e-16)
(0.873507 0.0158302 2.25426e-17)
(0.867692 0.0077308 -5.48255e-18)
(0.868972 0.0161348 -1.84202e-16)
(0.858997 0.0110514 -3.53446e-17)
(0.850661 0.0171822 1.58469e-16)
(0.855175 0.0121666 9.87283e-17)
(0.838483 0.0206856 -5.3456e-17)
(0.834069 0.0140591 8.24637e-17)
(0.82655 0.0228833 5.32115e-17)
(0.830117 0.0211097 4.47315e-17)
(0.849028 0.0267808 -2.28982e-17)
(0.86765 0.027999 -9.94674e-17)
(0.859407 0.0291706 1.43922e-16)
(0.861544 0.0281459 7.2633e-18)
(0.862363 0.0311368 1.10635e-17)
(0.894239 0.0295796 -4.18141e-17)
(0.911189 0.00755504 -2.19827e-17)
(0.89505 0.13756 8.6321e-18)
(0.829504 0.04415 3.44591e-17)
(0.839141 0.0202449 -2.11253e-16)
(0.819216 0.0113508 -2.70084e-18)
(0.820664 0.0286679 1.28449e-16)
(0.830289 0.0222543 1.49128e-16)
(0.838271 0.0301689 -3.89141e-16)
(0.851507 0.0216565 -4.05924e-16)
(0.847517 0.0283602 -1.80812e-16)
(0.848563 0.0168188 -1.83932e-16)
(0.82967 0.0241143 -6.67299e-17)
(0.839478 0.0145366 1.85697e-16)
(0.823758 0.0232608 4.84936e-17)
(0.841011 0.0128153 -3.00372e-16)
(0.832323 0.0212978 -5.72774e-16)
(0.845164 0.010505 -2.53823e-16)
(0.845905 0.019947 3.11817e-16)
(0.848363 0.00919639 3.07137e-16)
(0.861558 0.0195492 1.51449e-16)
(0.864388 0.011082 2.937e-16)
(0.861711 0.0207084 1.9546e-16)
(0.869064 0.0124271 -6.23891e-17)
(0.874564 0.0216882 6.83264e-17)
(0.877784 0.014503 1.78469e-17)
(0.86222 0.0225642 -5.35034e-17)
(0.8686 0.0154297 -6.79638e-17)
(0.855647 0.0241924 -9.95209e-17)
(0.849141 0.0175867 6.28671e-18)
(0.851138 0.027366 9.7277e-17)
(0.837997 0.0191607 -7.4138e-17)
(0.828937 0.0289381 -1.71177e-16)
(0.824879 0.0212673 -3.23551e-17)
(0.832028 0.0274355 3.16735e-17)
(0.847894 0.0254987 -1.37926e-17)
(0.864991 0.0303426 -4.17957e-17)
(0.862906 0.0291176 7.95778e-17)
(0.859294 0.0308268 -7.36066e-17)
(0.861955 0.0306416 1.52602e-17)
(0.891352 0.0300894 -3.31547e-17)
(0.909807 0.00835207 -2.61949e-17)
(0.88938 0.143435 3.60399e-18)
(0.871982 0.000145218 -1.98263e-16)
(0.846345 0.03456 -6.58827e-17)
(0.839091 0.0464623 -1.41931e-16)
(0.819328 0.0288988 8.03663e-17)
(0.841653 0.0312809 -3.42866e-16)
(0.852556 0.0246615 -2.02022e-16)
(0.866826 0.0217648 -1.68759e-16)
(0.861202 0.0226832 -9.22604e-17)
(0.854793 0.0156984 8.45097e-19)
(0.844246 0.024267 7.97337e-17)
(0.837744 0.0129368 -1.83296e-17)
(0.826204 0.0228417 -2.37154e-16)
(0.827746 0.00751291 -1.09021e-16)
(0.827669 0.0208806 2.79718e-16)
(0.839648 0.00655956 6.90541e-16)
(0.835393 0.0196644 3.74931e-16)
(0.841926 0.00491885 -2.60429e-16)
(0.846001 0.0178537 -3.45657e-16)
(0.853223 0.00452496 -2.80067e-16)
(0.856391 0.0156272 -4.63076e-16)
(0.864211 0.00446392 -2.44185e-16)
(0.868477 0.0159256 2.09474e-16)
(0.874601 0.00656923 1.08115e-16)
(0.874058 0.0161176 2.5178e-17)
(0.868056 0.00867402 -1.97937e-18)
(0.869198 0.0168497 -1.81392e-16)
(0.859455 0.0115794 -5.00737e-17)
(0.850797 0.0182545 1.53381e-16)
(0.855098 0.0128569 1.06498e-16)
(0.839297 0.0214165 -5.25751e-17)
(0.834317 0.0148788 7.44669e-17)
(0.826549 0.0239632 5.23824e-17)
(0.829578 0.0210598 4.66125e-17)
(0.84811 0.0275777 -1.92594e-17)
(0.867429 0.0280916 -1.03383e-16)
(0.860073 0.0300772 1.47461e-16)
(0.861251 0.0281804 8.50371e-18)
(0.862178 0.0314704 1.21016e-17)
(0.893573 0.0294141 -4.09552e-17)
(0.908571 0.00926011 -2.13176e-17)
(0.89735 0.133561 1.164e-17)
(0.832249 0.042618 5.46213e-17)
(0.855691 0.0216345 -2.15492e-16)
(0.833713 0.0116039 -1.41224e-16)
(0.841305 0.0301915 -4.17795e-16)
(0.856016 0.0248227 -4.38614e-16)
(0.864719 0.0306244 -3.54332e-16)
(0.873103 0.0236553 1.249e-16)
(0.867817 0.0289049 3.36994e-16)
(0.867659 0.0180899 1.20275e-16)
(0.853269 0.0258219 -8.40482e-17)