/*--------------------------------*- C++ -*----------------------------------*\
| =========                 |                                                 |
| \\      /  F ield         | OpenFOAM: The Open Source CFD Toolbox           |
|  \\    /   O peration     | Version:  2206                                  |
|   \\  /    A nd           | Website:  www.openfoam.com                      |
|    \\/     M anipulation  |                                                 |
\*---------------------------------------------------------------------------*/
FoamFile
{
    version     2.0;
    format      ascii;
    arch        "LSB;label=32;scalar=64";
    class       volScalarField;
    location    "160";
    object      T;
}
// * * * * * * * * * * * * * * * * * * * * * * * * * * * * * * * * * * * * * //

dimensions      [0 0 0 1 0 0 0];

internalField   nonuniform List<scalar> 
93840
(
1.01481
1.02483
1.0498
1.05117
1.0033
1.07967
0.892982
1.02586
1.03733
1.06521
0.983726
0.966149
1.02186
0.973272
1.07171
0.998068
0.997051
0.980917
1.05259
0.973767
1.08354
1.02335
0.999652
0.985309
0.930508
1.02331
1.00821
1.08755
1.00993
1.0199
0.999192
1.05264
0.948006
1.05064
0.980714
1.08384
1.0268
1.01208
1.00755
1.00599
1.03994
0.973762
0.995234
1.00462
1.08484
1.00895
1.02283
1.00303
1.05454
0.970019
1.02048
1.00263
1.02945
0.985519
1.08428
1.02072
1.01635
1.00374
0.974266
1.03832
0.989307
1.02798
0.999415
1.01418
1.01855
1.08346
1.00348
1.01036
0.99876
1.02093
0.987215
1.01695
1.03155
1.01531
1.02908
1.01117
0.995409
1.07727
1.02282
1.02037
1.01762
1.01638
1.02638
1.00275
1.03246
1.00642
1.02923
1.01995
1.00695
1.03535
1.06641
0.997696
1.01162
0.985791
1.02728
0.982225
1.01737
1.02742
0.995447
1.04855
0.995173
1.04067
1.0075
1.01218
1.05009
1.02444
0.997423
1.02214
0.995961
1.02859
1.02185
1.01515
1.02149
1.03034
1.02173
1.0406
1.02481
1.00345
1.01745
1.03393
0.994011
1.01411
1.00598
1.04157
0.999398
1.01574
1.0292
1.00888
1.03581
0.999609
1.04908
1.00517
1.02675
1.02045
1.01451
1.01679
1.02558
0.984204
1.00987
0.986641
1.02979
1.02942
1.01507
1.03422
1.02188
1.02125
1.02778
1.00609
1.03303
1.02676
1.00236
1.00873
1.00146
0.990726
1.02242
0.998452
1.03816
1.00971
1.00949
1.03242
1.01953
1.03054
1.00758
1.03338
1.00013
1.0437
0.991042
1.02564
1.01938
1.00482
0.989331
1.02695
0.985706
1.02357
1.01002
1.02161
1.02839
1.01396
1.03418
1.02001
1.03161
1.02207
1.02488
1.03147
1.02607
1.04279
1.02428
0.997392
1.00162
0.980084
0.998112
1.02383
0.977173
1.02412
1.00642
1.00647
1.02489
1.02152
1.02833
1.01618
1.03024
1.01177
1.03543
0.995816
1.02721
0.998352
1.0206
1.0109
0.998486
0.972531
1.02156
0.990021
1.03646
1.01482
1.01304
1.0313
1.01658
1.0251
1.0167
1.03038
1.02013
1.03227
1.02721
1.01152
1.03691
1.02594
1.05033
1.01863
1.00021
0.995475
0.965586
0.998428
1.02461
0.977844
1.01455
1.00818
1.00109
1.01974
1.01165
1.02458
1.01975
1.02643
1.01708
1.03025
1.01105
1.03263
1.00242
1.02441
0.99729
1.01641
1.00097
0.992771
0.960865
1.01641
0.989562
1.02648
1.01564
1.00504
1.02739
1.01702
1.02168
1.01945
1.02629
1.01719
1.0286
1.02107
1.02789
1.02943
1.02229
1.02606
1.02199
1.02472
1.01469
0.999101
0.990626
0.961097
0.988691
1.0218
0.965837
1.00645
1.01093
0.998753
1.01421
1.00976
1.02017
1.00913
1.02376
1.01837
1.02731
1.0161
1.02935
1.01153
1.02298
1.00655
1.02151
1.01173
1.01263
0.996611
0.988988
0.960162
1.0201
0.985781
1.02918
1.01841
1.00054
1.02254
1.01363
1.01798
1.01616
1.02189
1.01802
1.02505
1.01777
1.02875
1.0228
1.02484
1.02903
1.01866
1.03217
1.02042
1.01329
1.01052
0.994673
0.986394
0.952404
0.987461
1.02324
0.963398
0.997598
1.0105
0.995409
1.00937
0.998502
1.01522
1.00746
1.01793
1.01043
1.02469
1.01909
1.02592
1.01447
1.02867
1.01319
1.02354
0.995541
1.01848
1.01175
1.00852
0.992464
0.983082
0.943865
1.02491
0.983918
1.03108
1.02385
1.00132
1.01974
1.01224
1.0148
1.01335
1.01543
1.01178
1.02038
1.01856
1.02384
1.01501
1.02602
1.02058
1.02328
1.02623
1.01678
1.03565
1.01686
1.01008
1.00665
0.989739
0.993058
0.953264
1.00125
1.02743
0.977099
0.992787
1.01233
0.99851
1.01054
0.997529
1.00908
0.999003
1.01553
1.00581
1.01456
1.01031
1.02289
1.01513
1.02226
1.01579
1.02761
1.01377
1.02106
0.999584
1.01613
1.0081
1.0051
0.987498
0.992101
0.952277
1.02489
0.991968
1.03032
1.02763
1.00659
1.02022
1.00613
1.02
1.01158
1.01963
1.01413
1.01918
1.01277
1.02039
1.01561
1.02307
1.01686
1.02197
1.01991
1.02181
1.0238
1.01619
1.02168
1.01482
1.00639
1.00404
0.985876
0.98973
0.957551
1.00933
1.02709
0.988032
0.991761
1.01442
1.00274
1.00904
1.00487
1.00774
1.00073
1.00787
1.00058
1.01318
1.00777
1.01403
1.00916
1.02052
1.01403
1.02143
1.01286
1.02612
1.01288
1.02056
1.00904
1.0132
1.00488
1.00321
0.984954
0.988215
0.955946
1.02043
0.993078
1.02871
1.03277
1.01089
1.01709
1.00512
1.01315
1.01102
1.02162
1.00834
1.0171
1.01295
1.01886
1.01182
1.02279
1.01685
1.02075
1.0158
1.0219
1.02061
1.02274
1.02159
1.01596
1.01274
1.01215
1.00351
1.00169
0.983247
0.987459
0.960742
1.00857
1.03062
1.0033
0.995001
1.01699
1.00823
1.01392
1.00694
1.01096
1.00675
1.00702
1.00084
1.01039
1.00071
1.01172
1.00678
1.01116
1.00925
1.02012
1.01379
1.01961
1.01114
1.02302
1.0128
1.01989
1.01101
1.01141
1.00233
1.00125
0.983663
0.987038
0.95823
1.01475
0.992015
1.02972
1.03395
1.01352
1.0192
1.00553
1.00997
1.00631
1.01828
1.01147
1.0206
1.00861
1.01151
1.01193
1.01762
1.01011
1.02281
1.01789
1.01852
1.01568
1.01989
1.01905
1.0212
1.02306
1.01542
1.0106
1.01109
1.0015
1.0008
0.983249
0.986819
0.961672
1.00285
1.0312
1.0115
0.995245
1.01921
1.00839
1.01801
1.00959
1.01251
1.01016
1.01712
1.00565
1.00734
1.00014
1.00731
1.00085
1.0088
1.00603
1.01166
1.01032
1.01862
1.01144
1.01777
1.01124
1.02291
1.01241
1.01781
1.00925
1.01076
1.0008
1.00053
0.983348
0.986713
0.958102
1.01674
0.99875
1.02916
1.03053
1.01358
1.02108
1.0082
1.00903
1.00578
1.01332
1.01073
1.01634
1.01102
1.01764
1.00959
1.01076
1.01018
1.01631
1.00984
1.02159
1.0178
1.01792
1.01691
1.02075
1.01892
1.02122
1.02265
1.01568
1.00899
1.01036
1.00051
1.00119
0.982842
0.986618
0.961027
0.997968
1.02818
1.01385
0.996256
1.01858
1.01001
1.01834
1.0108
1.01671
1.01143
1.01571
1.01404
1.01483
1.0064
1.00945
1.00275
1.00642
1.0009
1.00782
1.00425
1.00944
1.00997
1.01859
1.00942
1.01794
1.01151
1.02191
1.01048
1.01785
1.00777
1.00996
1.00055
0.999937
0.983467
0.98663
0.957826
1.02091
1.00235
1.03014
1.0266
1.01015
1.02434
1.00938
1.01119
1.00806
1.01001
1.00832
1.0113
1.00965
1.01493
1.01326
1.0152
1.01266
1.01105
1.01137
1.01434
1.01045
1.02144
1.01812
1.01776
1.01665
1.02039
1.01982
1.01899
1.02415
1.01515
1.00793
1.00965
1.00013
1.00215
0.982705
0.986618
0.961846
1.00023
1.02609
1.01593
0.996791
1.01768
1.01037
1.01642
1.00948
1.01433
1.01009
1.01263
1.01791
1.01647
1.01537
1.013
1.00655
1.00877
1.00143
1.00477
1.00184
1.00812
1.00465
1.0082
1.00843
1.01804
1.00778
1.01638
1.0118
1.0246
1.011
1.01609
1.00703
1.00923
0.999617
1.00139
0.983163
0.986806
0.958957
1.01897
1.00558
1.02582
1.02706
1.00865
1.02646
1.00871
1.0105
1.00869
1.01026
1.01016
1.01071
1.01309
1.01153
1.01068
1.01734
1.01273
1.0137
1.01409
1.0108
1.01055
1.01315
1.01238
1.0195
1.01544
1.01835
1.01563
1.01707
1.01858
1.01862
1.02198
1.01481
1.00748
1.00871
0.99929
1.00378
0.983045
0.987048
0.962704
1.00491
1.01925
1.01371
0.992712
1.01317
1.00804
1.00943
1.00922
1.00668
1.01074
1.01297
1.01265
1.01537
1.01646
1.01169
1.01476
1.01176
1.0046
1.00874
1.0005
1.00753
1.00246
1.00906
1.00505
1.00942
1.00739
1.01653
1.00827
1.01782
1.01195
1.02431
1.01264
1.0143
1.00668
1.00835
0.998863
1.00166
0.983345
0.987338
0.958574
1.01375
1.00612
1.02094
1.02471
1.00324
1.0227
1.00333
1.01224
1.00162
1.008
1.00926
1.01192
1.01187
1.01229
1.01462
1.01036
1.01167
1.01733
1.01256
1.01441
1.0132
1.0103
1.01238
1.01305
1.01197
1.01811
1.01544
1.01731
1.01691
1.01818
1.01714
1.02144
1.02041
1.01324
1.00658
1.00781
0.998976
1.00293
0.982836
0.987519
0.96337
1.00596
1.01161
1.00882
0.990185
1.00479
1.00397
1.00341
1.00744
1.00244
1.00789
1.00638
1.01146
1.01516
1.01002
1.01418
1.01739
1.01324
1.01577
1.01233
1.00351
1.0097
1.00343
1.0078
1.00378
1.00953
1.00545
1.01206
1.00682
1.01671
1.00944
1.01717
1.01323
1.02265
1.01383
1.01394
1.00608
1.00826
0.998818
1.00319
0.983502
0.987844
0.960248
1.01041
1.00755
1.0192
1.02092
0.999906
1.01997
1.00056
1.01148
1.00346
1.00845
0.99981
1.00994
1.00868
1.00976
1.01272
1.0103
1.01334
1.01156
1.00947
1.01572
1.01241
1.01453
1.01073
1.00981
1.01104
1.01404
1.01083
1.01735
1.01523
1.01766
1.01658
1.01756
1.01757
1.02167
1.01776
1.01317
1.0054
1.00863
0.998687
1.00106
0.983669
0.988109
0.963634
1.00578
1.00713
1.00759
0.989026
1.00069
1.00361
1.00238
1.00784
1.00409
1.01117
1.00074
1.00803
1.00747
1.01095
1.01206
1.01286
1.01369
1.01646
1.01525
1.01784
1.01362
1.00637
1.00934
1.00606
1.00664
1.00479
1.00935
1.00441
1.01238
1.00751
1.01634
1.0097
1.0173
1.01288
1.02368
1.01357
1.0137
1.00465
1.00837
0.997714
1.00206
0.984756
0.988357
0.961304
1.00775
1.0049
1.01374
1.01518
0.995676
1.01783
1.00034
1.01176
1.00358
1.01436
1.0025
1.0121
1.00046
1.00792
1.01107
1.01133
1.0135
1.01095
1.01379
1.01269
1.01051
1.01449
1.01151
1.01433
1.00745
1.0082
1.00624
1.01264
1.0111
1.01703
1.01357
1.01709
1.01563
1.01768
1.01898
1.01988
1.01751
1.01161
1.0039
1.00774
0.997801
1.00354
0.984271
0.988602
0.965969
1.00334
0.999753
1.00761
0.99018
0.999646
1.00306
1.00057
1.00775
1.00398
1.01137
1.00479
1.00933
0.999229
1.00788
1.00522
1.00952
1.00965
1.01175
1.0159
1.01648
1.01342
1.01916
1.01468
1.00713
1.00836
1.00721
1.00961
1.00592
1.01111
1.00456
1.01258
1.00929
1.01598
1.00912
1.01577
1.01246
1.02135
1.01348
1.01342
1.00311
1.00739
0.995754
1.00437
0.985568
0.988854
0.962827
1.0078
1.00451
1.01411
1.01225
0.99708
1.01757
1.00125
1.01373
1.00521
1.013
1.00349
1.0119
1.00158
1.01083
1.00253
1.00615
1.00901
1.01116
1.01305
1.01183
1.01467
1.01358
1.00946
1.01217
1.00934
1.01268
1.00579
1.00781
1.00801
1.01094
1.01222
1.01699
1.01531
1.01748
1.01433
1.01535
1.01875
1.02002
1.01693
1.01284
1.00298
1.00808
0.996751
1.00529
0.985824
0.988868
0.966516
1.00299
0.999691
1.00961
0.988732
1.002
1.00636
1.00235
1.009
1.00386
1.01217
1.00709
1.01001
1.00354
1.00867
1.00082
1.00854
1.00655
1.00882
1.0102
1.01245
1.01577
1.01599
1.01514
1.01775
1.01494
1.00855
1.00781
1.0042
1.00686
1.00535
1.01022
1.00573
1.01181
1.01048
1.01488
1.00959
1.01629
1.01045
1.02093
1.01312
1.01407
1.00215
1.00892
0.997763
1.00498
0.987396
0.988757
0.962722
1.00668
1.00545
1.01256
1.01237
1.00014
1.01954
1.00323
1.01604
1.01054
1.01249
1.00669
1.01483
1.00473
1.00911
1.00222
1.0097
1.00333
1.01029
1.00698
1.01175
1.01402
1.01206
1.01439
1.01242
1.01115
1.01231
1.00906
1.01047
1.00782
1.00988
1.00723
1.01348
1.01291
1.01785
1.01604
1.01769
1.0156
1.01405
1.01903
1.02095
1.01529
1.01295
1.00271
1.00834
0.996491
1.00543
0.986199
0.988537
0.965584
0.999792
1.00102
1.01286
0.992969
1.00547
1.00785
1.00339
1.0101
1.00697
1.01024
1.00544
1.01551
1.00683
1.01037
1.00583
1.00791
1.00256
1.00752
1.00708
1.01107
1.01227
1.0116
1.01553
1.01599
1.01415
1.01592
1.01281
1.00817
1.00763
1.00646
1.00751
1.00377
1.00905
1.00638
1.01031
1.00995
1.01462
1.00806
1.01608
1.01132
1.02219
1.01316
1.01595
1.00192
1.0107
0.997278
1.00368
0.98644
0.988335
0.960904
1.0085
0.996401
1.014
1.01055
1.00166
1.01843
1.00542
1.01691
1.01432
1.0151
1.00939
1.01829
1.01069
1.01541
1.00525
1.01134
1.00388
1.01347
1.00452
1.01225
1.00911
1.01029
1.0139
1.01078
1.01422
1.01361
1.01386
1.01227
1.00829
1.01058
1.00749
1.00875
1.00754
1.01449
1.01354
1.01739
1.01613
1.01592
1.01368
1.01446
1.01638
1.02127
1.0146
1.01475
1.00242
1.00878
0.996646
1.00565
0.98514
0.988234
0.965427
0.999705
1.01322
1.01161
0.995864
1.00944
1.00563
1.0033
1.00927
1.00591
1.01277
1.00637
1.01682
1.0074
1.01505
1.0066
1.01218
1.00543
1.00813
1.00239
1.00961
1.00594
1.01313
1.01271
1.01087
1.01537
1.01666
1.01467
1.01462
1.01283
1.00798
1.00896
1.0059
1.00839
1.00364
1.00783
1.0063
1.01009
1.00991
1.01534
1.00899
1.01579
1.00996
1.02127
1.01371
1.01658
1.00122
1.00876
0.996047
1.00441
0.986569
0.988429
0.961498
1.01087
0.995987
1.00991
1.01252
1.00493
1.01464
1.00836
1.01638
1.01332
1.01988
1.00994
1.01845
1.00861
1.02029
1.00865
1.0154
1.00635
1.01154
1.00267
1.01144
1.00448
1.01427
1.00841
1.01316
1.01489
1.01243
1.01408
1.01281
1.01631
1.01098
1.00716
1.00932
1.00626
1.00805
1.00796
1.01417
1.01358
1.01641
1.01575
1.0152
1.01481
1.01569
1.01302
1.02083
1.01442
1.0164
1.00222
1.00886
0.996817
1.00367
0.987376
0.988684
0.964289
0.996353
1.02029
1.01128
0.999324
1.01099
1.00361
1.00494
1.00777
1.00482
1.01566
1.00759
1.01704
1.00705
1.01659
1.00722
1.01644
1.00701
1.01268
1.00471
1.00816
1.00509
1.00829
1.00668
1.01037
1.01172
1.01295
1.01609
1.01691
1.01382
1.0151
1.01236
1.0084
1.00853
1.00506
1.00725
1.00614
1.0073
1.00577
1.00963
1.00939
1.01399
1.00831
1.01756
1.01295
1.02283
1.01195
1.01771
1.00147
1.01039
0.997903
1.00156
0.987494
0.988906
0.959495
1.01743
0.997196
1.00775
1.01371
1.00672
1.01358
1.00949
1.01175
1.01068
1.02049
1.01021
1.02335
1.01016
1.02199
1.01064
1.02039
1.01012
1.01507
1.00789
1.01335
1.00271
1.0099
1.00562
1.01227
1.00988
1.01303
1.0133
1.01237
1.01521
1.0137
1.01533
1.00971
1.00951
1.01001
1.00783
1.00931
1.00771
1.01408
1.01404
1.01649
1.01541
1.01531
1.01465
1.01499
1.01346
1.01891
1.01429
1.01645
1.00212
1.00875
0.996907
1.00432
0.986786
0.989013
0.961611
0.997722
1.01991
1.00311
1.00147
1.01326
1.00348
1.00464
1.00279
1.00546
1.01729
1.00965
1.01228
1.005
1.02101
1.00803
1.01775
1.00822
1.01788
1.00728
1.01296
1.00599
1.01215
1.00361
1.00861
1.00929
1.0117
1.01118
1.01197
1.01672
1.0149
1.01449
1.01615
1.01172
1.0094
1.0075
1.00509
1.0078
1.00699
1.00875
1.00631
1.01042
1.00964
1.01517
1.00793
1.01597
1.0121
1.02325
1.01205
1.0183
1.0033
1.00794
0.99591
1.00188
0.987284
0.989136
0.957281
1.01884
0.999325
1.00195
1.01524
1.01045
1.01278
1.00938
1.00845
1.01051
1.01602
1.00735
1.01412
1.01112
1.02307
1.01142
1.02419
1.01135
1.02198
1.01065
1.017
1.00584
1.01137
1.00424
1.01075
1.00613
1.01225
1.01038
1.01355
1.0126
1.01301
1.0143
1.01431
1.01439
1.01023
1.00871
1.00918
1.00782
1.01068
1.00951
1.01295
1.01401
1.01572
1.01509
1.01463
1.01486
1.01525
1.01447
1.01911
1.01427
1.01716
1.00363
1.00795
0.998171
1.00238
0.986704
0.989323
0.959684
1.00126
1.01893
1.00192
1.00281
1.01628
1.00391
1.00589
1.00038
1.00484
1.01274
1.01001
1.01894
1.01351
1.02567
1.01005
1.0211
1.00729
1.01874
1.00835
1.01723
1.00807
1.01284
1.00703
1.00951
1.00345
1.00972
1.00739
1.01028
1.01039
1.01179
1.01369
1.01632
1.01402
1.01675
1.01279
1.00988
1.01032
1.0063
1.00601
1.00671
1.01023
1.00474
1.01018
1.00865
1.01577
1.00932
1.01649
1.01052
1.02361
1.01383
1.01726
1.00247
1.0064
0.996755
1.00295
0.986832
0.98961
0.954618
1.01485
1.00105
1.00054
1.01331
1.01101
1.00857
1.00684
1.00452
1.00891
1.01147
1.01493
1.01743
1.0088
1.01728
1.01501
1.02162
1.01349
1.02333
1.01279
1.02158
1.01253
1.01697
1.0084
1.01275
1.00626
1.01424
1.00544
1.0139
1.00835
1.0137
1.01421
1.01327
1.01599
1.01475
1.01298
1.01177
1.00832
1.00942
1.0085
1.0117
1.00925
1.01279
1.01408
1.01588
1.01489
1.01408
1.01531
1.01392
1.01346
1.02121
1.01442
1.01742
1.00457
1.00575
0.996456
1.00384
0.987636
0.989972
0.958386
0.998368
1.0156
0.994641
1.0067
1.01824
1.00474
1.00575
0.999649
1.00563
1.00899
1.01256
1.01341
1.01013
1.01968
1.01348
1.01653
1.00917
1.01755
1.00923
1.01954
1.008
1.01805
1.01029
1.01325
1.00686
1.00676
1.00409
1.01036
1.00796
1.01192
1.00943
1.012
1.01301
1.01539
1.01489
1.01644
1.01378
1.0094
1.00835
1.00648
1.00707
1.00752
1.01056
1.00568
1.01019
1.00944
1.01606
1.0092
1.01712
1.01009
1.02329
1.01399
1.01732
1.00394
1.00553
0.996924
1.00332
0.986772
0.99057
0.954955
1.01628
1.0002
0.992693
1.01195
1.01127
1.00849
1.00432
1.00367
1.00836
1.00872
1.01407
1.01325
1.01378
1.01688
1.01036
1.01544
1.016
1.02255
1.01683
1.02336
1.01039
1.02157
1.01007
1.01781
1.00673
1.01133
1.00719
1.01253
1.00428
1.01003
1.0097
1.01536
1.01296
1.01244
1.01478
1.01434
1.01227
1.01016
1.00836
1.01098
1.00794
1.01154
1.00827
1.01171
1.01425
1.01495
1.01514
1.0137
1.01508
1.01305
1.0143
1.01985
1.01502
1.01703
1.00357
1.00575
0.996451
1.00326
0.988418
0.99111
0.960349
0.999295
1.01601
1.00033
1.0078
1.02002
1.00576
1.00501
1.00104
1.00515
1.0078
1.01378
1.0082
1.01185
1.01784
1.0122
1.02092
1.01184
1.01892
1.01151
1.01606
1.01191
1.01818
1.00838
1.01688
1.00837
1.01444
1.00659
1.00649
1.00679
1.01121
1.00971
1.01032
1.00948
1.01424
1.01711
1.01541
1.01534
1.01542
1.01159
1.01022
1.00776
1.00688
1.00734
1.00641
1.01051
1.00558
1.00907
1.00898
1.0162
1.00953
1.01676
1.00948
1.02209
1.01298
1.01654
1.00287
1.00576
0.996866
1.0007
0.985727
0.991555
0.960504
1.01423
1.00506
0.98844
1.01078
1.01202
1.00663
1.0017
1.00449
1.00524
1.01127
1.01417
1.00803
1.01482
1.01153
1.01379
1.01553
1.01257
1.01589
1.01667
1.01614
1.0159
1.02475
1.01019
1.02284
1.01153
1.0191
1.00499
1.01524
1.00796
1.01006
1.00535
1.01137
1.00996
1.01532
1.01338
1.01257
1.01358
1.01408
1.01297
1.00902
1.00882
1.00993
1.00758
1.01243
1.00679
1.01111
1.01382
1.0145
1.01517
1.0125
1.01487
1.01232
1.01698
1.01833
1.01548
1.01622
1.0026
1.0052
0.995701
1.00131
0.987753
0.99174
0.964872
0.999515
1.01238
0.994905
1.00637
1.01996
1.00471
1.00377
1.0038
1.00241
1.01029
1.00953
1.00916
1.01089
1.01209
1.01137
1.0181
1.00994
1.01944
1.01329
1.01831
1.0165
1.01921
1.00931
1.0188
1.00969
1.0175
1.01038
1.01777
1.00591
1.0091
1.00918
1.01128
1.00892
1.01136
1.00834
1.01103
1.01422
1.01553
1.0143
1.0151
1.01007
1.0119
1.00735
1.01005
1.00732
1.00676
1.01371
1.00597
1.00947
1.00979
1.01588
1.00871
1.01595
1.00975
1.02169
1.01297
1.01627
1.00169
1.00519
0.994702
1.00234
0.987388
0.991833
0.962384
1.01412
1.00795
0.990809
1.01051
1.0107
1.00548
1.00182
1.00724
1.00146
1.0142
1.01087
1.00916
1.01315
1.00687
1.01655
1.01244
1.01316
1.0148
1.01406
1.01601
1.01533
1.017
1.01706
1.02488
1.0119
1.02227
1.01127
1.01566
1.00576
1.01199
1.00819
1.00826
1.00778
1.00822
1.00997
1.01112
1.01112
1.01218
1.01394
1.01389
1.01272
1.0087
1.00953
1.01003
1.00526
1.01239
1.00807
1.01114
1.01497
1.01509
1.01496
1.01283
1.01513
1.01192
1.01643
1.01827
1.0148
1.01537
1.0009
1.00526
0.993473
1.00026
0.988643
0.991798
0.966861
0.998989
1.00994
0.992513
1.0035
1.01906
1.00623
1.00527
1.0071
0.999803
1.01457
1.00443
1.01503
1.00979
1.01279
1.00975
1.0131
1.01235
1.01734
1.0113
1.01818
1.01347
1.01981
1.01688
1.01621
1.00986
1.01801
1.00973
1.01903
1.01118
1.01422
1.01119
1.00856
1.01119
1.00812
1.00869
1.01078
1.00989
1.01271
1.01301
1.01561
1.01322
1.01392
1.01117
1.0106
1.00704
1.00981
1.00743
1.00673
1.01062
1.00733
1.00945
1.01023
1.01649
1.00966
1.01538
1.00987
1.02314
1.01181
1.01655
1.00064
1.00382
0.994573
1.00245
0.985599
0.991812
0.962344
1.01623
1.01063
0.987876
1.00949
1.01248
1.00726
1.00215
1.00786
0.997634
1.01668
1.01055
1.011
1.01018
1.01027
1.01343
1.00908
1.01578
1.01299
1.01401
1.01582
1.01551
1.01688
1.01597
1.01822
1.01837
1.02308
1.0141
1.02263
1.01511
1.0179
1.01002
1.01021
1.00875
1.00979
1.00778
1.00809
1.00982
1.01369
1.01344
1.01354
1.01448
1.01314
1.01378
1.00965
1.00844
1.01067
1.00625
1.01334
1.00785
1.01406
1.01489
1.01382
1.01611
1.01353
1.01499
1.0124
1.01569
1.01863
1.01644
1.0155
1.00033
1.00437
0.993733
0.999978
0.989548
0.991761
0.964472
0.998535
1.00802
0.990795
1.00221
1.02025
1.00848
1.00544
1.00985
0.999523
1.01578
1.00474
1.01732
1.00511
1.01436
1.00618
1.01224
1.00996
1.01363
1.01332
1.01868
1.01162
1.01662
1.01181
1.01875
1.01615
1.01828
1.00998
1.02144
1.01113
1.01504
1.01043
1.01134
1.00853
1.00772
1.00986
1.00861
1.00849
1.01152
1.01133
1.01481
1.01305
1.01572
1.01282
1.01272
1.01052
1.00938
1.00582
1.00877
1.00689
1.00665
1.01068
1.00762
1.00931
1.01132
1.01549
1.01059
1.0152
1.01033
1.02212
1.01103
1.01502
0.999823
1.00339
0.992575
1.00155
0.986415
0.99198
0.959469
1.01854
1.01125
0.985729
1.00605
1.01125
1.00719
1.00067
1.00848
0.996504
1.01622
1.01036
1.01301
1.01436
1.01354
1.01179
1.01155
1.01289
1.01043
1.01539
1.01331
1.01384
1.01495
1.01728
1.01764
1.01692
1.01835
1.01863
1.01575
1.01103
1.0213
1.01656
1.0137
1.01076
1.01658
1.00902
1.00866
1.00882
1.00644
1.01002
1.01206
1.01309
1.01336
1.0134
1.01202
1.01216
1.01033
1.01067
1.01171
1.00639
1.01282
1.00955
1.01327
1.01361
1.01487
1.01526
1.01402
1.01409
1.01465
1.01737
1.01793
1.01741
1.0145
0.999551
1.00249
0.992301
1.00135
0.989901
0.992471
0.962014
1.00081
1.0077
0.994508
1.00261
1.02051
1.01006
1.00575
1.01161
1.00111
1.0148
1.00622
1.01785
1.00767
1.0145
1.00634
1.01655
1.00699
1.01346
1.01064
1.01434
1.01224
1.01684
1.01214
1.01752
1.01207
1.01949
1.0163
1.01646
1.01601
1.02163
1.01136
1.01421
1.01414
1.01212
1.00658
1.00802
1.0105
1.0087
1.00903
1.01002
1.0112
1.01456
1.01337
1.01545
1.01437
1.01413
1.01056
1.00873
1.00562
1.0085
1.00781
1.00684
1.01082
1.00728
1.01019
1.01065
1.01502
1.01154
1.01371
1.00876
1.01865
1.01179
1.01518
0.999531
1.00183
0.992446
1.0013
0.985148
0.993301
0.959163
1.01895
1.0116
0.985897
1.00433
1.01097
1.00728
1.00022
1.00848
0.9966
1.0124
1.01041
1.01307
1.0101
1.01393
1.01421
1.01539
1.01355
1.0103
1.0125
1.0095
1.01537
1.01206
1.01361
1.01441
1.01679
1.01696
1.01725
1.01698
1.0165
1.01695
1.01299
1.01596
1.01743
1.01348
1.01014
1.01473
1.00924
1.01005
1.00921
1.01083
1.00858
1.01102
1.01267
1.01456
1.01307
1.01177
1.014
1.01051
1.01117
1.01219
1.00687
1.01183
1.01064
1.01313
1.01508
1.01585
1.01539
1.01409
1.01429
1.01586
1.01758
1.01848
1.01622
1.01438
0.999531
1.00308
0.992963
1.00149
0.98895
0.994302
0.962135
1.00391
1.00798
0.995359
1.00277
1.0207
1.01203
1.0071
1.0127
1.00385
1.0122
1.00728
1.01632
1.00918
1.01493
1.00884
1.01371
1.00787
1.01327
1.00742
1.01285
1.01035
1.0141
1.01271
1.01643
1.01303
1.01739
1.01292
1.01934
1.01551
1.01785
1.01572
1.02334
1.01612
1.01553
1.0148
1.01168
1.00929
1.00889
1.01033
1.00842
1.00975
1.00947
1.01049
1.01295
1.01394
1.01352
1.01381
1.0134
1.0096
1.00918
1.0058
1.00774
1.00776
1.00616
1.01005
1.00844
1.00939
1.0105
1.01478
1.012
1.01517
1.01106
1.01801
1.0125
1.01379
0.999718
1.00298
0.990265
1.00179
0.986425
0.99502
0.960843
1.019
1.00945
0.989823
1.00578
1.01079
1.00742
1.00079
1.00797
0.998996
1.01071
1.01091
1.01173
1.01143
1.01366
1.01282
1.01432
1.01331
1.01486
1.0126
1.01181
1.01176
1.00924
1.01506
1.01275
1.0141
1.0135
1.01791
1.01637
1.01748
1.01608
1.01548
1.01694
1.01215
1.01671
1.01404
1.0137
1.01181
1.01183
1.01008
1.01006
1.00976
1.00951
1.01079
1.01299
1.01209
1.01468
1.0129
1.01122
1.0135
1.00971
1.01014
1.01185
1.00752
1.0095
1.01012
1.0137
1.01522
1.01581
1.01542
1.01431
1.01349
1.01361
1.01555
1.01844
1.01518
1.01286
0.99924
1.00147
0.991445
0.999172
0.988149
0.995329
0.96409
1.00551
1.00888
0.996211
1.00342
1.01969
1.01289
1.00847
1.01093
1.0064
1.00836
1.00999
1.01163
1.01177
1.01341
1.01073
1.01398
1.01201
1.01315
1.01147
1.01249
1.0088
1.01417
1.00985
1.01468
1.01316
1.01446
1.01348
1.01629
1.01231
1.01752
1.01567
1.022
1.0161
1.02345
1.01587
1.01753
1.01443
1.0121
1.00877
1.00803
1.0079
1.00815
1.00636
1.01019
1.00899
1.01286
1.01361
1.01402
1.01373
1.01457
1.0094
1.01066
1.00519
1.00781
1.00889
1.00629
1.01012
1.0073
1.00931
1.01088
1.0147
1.01143
1.01455
1.01185
1.01908
1.0119
1.01299
0.999798
1.00204
0.990215
1.00117
0.985315
0.99523
0.964638
1.0196
1.0093
0.990772
1.00525
1.0093
1.00615
1.00236
1.00522
1.00069
1.00762
1.01108
1.00777
1.01202
1.01026
1.01093
1.01318
1.01255
1.01264
1.01253
1.01161
1.0135
1.00885
1.01219
1.0101
1.01435
1.01281
1.0148
1.01299
1.01651
1.01736
1.01741
1.01707
1.01415
1.01602
1.01429
1.01781
1.01471
1.01271
1.01145
1.01866
1.00959
1.00943
1.00839
1.01312
1.00943
1.0157
1.01554
1.01603
1.0131
1.01157
1.01395
1.00899
1.01132
1.01224
1.00791
1.01092
1.01099
1.01395
1.01475
1.01488
1.0158
1.01356
1.01379
1.01375
1.01397
1.01825
1.01228
1.01264
1.00016
1.00258
0.990936
0.999378
0.988246
0.994018
0.962
1.00706
1.00958
0.995662
1.00379
1.01886
1.01332
1.01029
1.00952
1.0097
1.00535
1.01081
1.00896
1.01228
1.01111
1.01026
1.01522
1.01235
1.01356
1.01321
1.01296
1.01144
1.01266
1.00931
1.01446
1.0098
1.01449
1.01412
1.01378
1.01475
1.01682
1.01359
1.01711
1.01449
1.02129
1.01603
1.01733
1.01617
1.01731
1.01595
1.01312
1.00605
1.00961
1.00904
1.0093
1.00584
1.01105
1.00737
1.01017
1.01436
1.01479
1.0131
1.0145
1.00992
1.01112
1.00586
1.00627
1.00838
1.00651
1.01097
1.00754
1.00913
1.01173
1.01402
1.01055
1.01238
1.01214
1.01816
1.01158
1.01278
1.00026
1.00248
0.989538
1.00238
0.986846
0.992317
0.96031
1.01961
1.00898
0.993005
1.00436
1.00797
1.0054
1.00311
1.00091
1.00252
1.00432
1.01193
1.0038
1.01219
1.00692
1.01133
1.01074
1.01207
1.01129
1.01299
1.01238
1.01379
1.01123
1.01293
1.00984
1.01159
1.01145
1.01358
1.01348
1.01462
1.01265
1.01649
1.01499
1.01793
1.01608
1.01519
1.01532
1.01355
1.01616
1.01269
1.01352
1.00992
1.01673
1.00966
1.00952
1.00793
1.01303
1.01097
1.01646
1.01464
1.01568
1.0128
1.01193
1.01307
1.00919
1.01013
1.01202
1.00781
1.00881
1.01093
1.01293
1.01511
1.0138
1.01588
1.01269
1.01279
1.0131
1.01339
1.01717
1.01185
1.01246
0.999655
1.00278
0.98998
1.00006
0.988579
0.994696
0.962042
1.00924
1.00916
0.996553
1.00513
1.01836
1.01273
1.01097
1.00796
1.01069
1.00144
1.01075
1.00592
1.00816
1.00789
1.01148
1.01109
1.01171
1.01485
1.01264
1.01515
1.0131
1.0141
1.01212
1.01353
1.00828
1.01576
1.01062
1.01475
1.01356
1.01469
1.01564
1.01568
1.01497
1.01712
1.01493
1.02188
1.01724
1.02046
1.01794
1.01894
1.01501
1.01383
1.00673
1.00935
1.00935
1.00914
1.0029
1.01121
1.00533
1.01295
1.01492
1.01449
1.01283
1.01435
1.01182
1.01241
1.0072
1.00571
1.00822
1.00743
1.01114
1.00754
1.00936
1.01049
1.01344
1.01016
1.01348
1.01208
1.01822
1.0114
1.01295
0.999747
1.00379
0.99024
0.999561
0.986456
0.994541
0.957008
1.01862
1.00849
0.992535
1.00534
1.00832
1.0054
1.00353
0.999167
1.00399
1.00124
1.01008
1.00051
1.01143
1.00695
1.01406
1.00957
1.01401
1.01001
1.01275
1.01257
1.01367
1.01329
1.01337
1.0116
1.01086
1.01079
1.01157
1.01193
1.01313
1.013
1.01525
1.01392
1.01669
1.01452
1.01876
1.01534
1.01563
1.01693
1.01304
1.0175
1.01105
1.01318
1.01143
1.01585
1.00902
1.00722
1.00813
1.01302
1.0105
1.0163
1.01308
1.01471
1.01311
1.0116
1.01345
1.00913
1.01076
1.01208
1.00844
1.00981
1.01041
1.0139
1.01553
1.01274
1.01539
1.01312
1.01394
1.0131
1.01344
1.01783
1.0119
1.01223
0.998648
1.00385
0.993003
1.00016
0.985665
0.993832
0.960673
1.01036
1.00949
1.00064
1.00632
1.01983
1.01172
1.01101
1.00691
1.01116
1.00064
1.01149
1.00438
1.01129
1.00551
1.00693
1.00832
1.009
1.01199
1.0124
1.0142
1.01264
1.01467
1.01353
1.01389
1.01193
1.01484
1.00661
1.01563
1.00955
1.01423
1.01354
1.01528
1.01461
1.01701
1.01478
1.01941
1.01568
1.02247
1.01569
1.02036
1.01523
1.01908
1.01592
1.01247
1.00866
1.00855
1.00999
1.00902
1.00306
1.01034
1.00808
1.01187
1.01495
1.01477
1.01418
1.01367
1.01099
1.01141
1.00704
1.00575
1.00794
1.00916
1.01017
1.00633
1.00908
1.01113
1.01396
1.01022
1.01381
1.01312
1.01705
1.01109
1.01217
0.998058
1.00403
0.990517
0.99934
0.983662
0.993586
0.958413
1.01857
1.00842
0.99354
1.00542
1.00612
1.00383
1.00377
0.997635
1.00292
0.997789
1.00779
0.998633
1.00905
0.998657
1.01195
1.00298
1.01356
1.00661
1.0143
1.01207
1.01351
1.01304
1.0139
1.01311
1.01329
1.01212
1.00941
1.01193
1.01205
1.01226
1.01369
1.01365
1.01581
1.01379
1.0162
1.01527
1.01728
1.01665
1.0143
1.01662
1.01405
1.01858
1.01061
1.01447
1.01129
1.01655
1.01091
1.00741
1.00831
1.01433
1.01
1.01385
1.01282
1.01381
1.01449
1.01231
1.01339
1.01048
1.01046
1.01232
1.00849
1.01146
1.00975
1.0141
1.01564
1.01353
1.01492
1.01231
1.01313
1.01122
1.01304
1.0166
1.01145
1.01196
0.998131
1.0031
0.991062
1.00043
0.983347
0.993705
0.958602
1.01322
1.01049
1.00008
1.00582
1.01919
1.01007
1.01103
1.00697
1.0103
1.00097
1.01032
1.0033
1.01016
1.00408
1.01226
1.00672
1.00992
1.00774
1.01073
1.01072
1.01281
1.0135
1.01282
1.01525
1.01279
1.01311
1.01122
1.01574
1.00625
1.01389
1.01002
1.01465
1.01448
1.01611
1.01575
1.01678
1.01518
1.02025
1.01457
1.02377
1.01652
1.0198
1.0179
1.0184
1.01426
1.0133
1.00938
1.00854
1.01051
1.00898
1.00503
1.00875
1.01053
1.0134
1.01358
1.01417
1.01294
1.01454
1.01151
1.01176
1.00721
1.00566
1.00795
1.00877
1.01022
1.00763
1.00961
1.01134
1.01499
1.01013
1.01297
1.01317
1.01751
1.01036
1.01267
1.00065
1.00221
0.992677
1.00052
0.984891
0.994176
0.95434
1.01723
1.00817
0.995955
1.00749
1.0063
1.00321
1.00401
0.997486
1.00187
0.99813
1.01067
0.998574
1.00443
1.0017
1.01019
0.996928
1.01307
1.00425
1.01358
1.00772
1.01423
1.01176
1.01317
1.0127
1.01489
1.01299
1.01378
1.01165
1.00987
1.01248
1.0117
1.01264
1.01363
1.01286
1.01546
1.0153
1.01659
1.0142
1.01764
1.01559
1.01568
1.01715
1.01481
1.01696
1.0134
1.01599
1.01143
1.01595
1.00956
1.00997
1.00942
1.01423
1.01006
1.01056
1.01252
1.01426
1.01379
1.01261
1.01457
1.0106
1.01191
1.0117
1.01007
1.01347
1.01092
1.01512
1.01518
1.0127
1.01456
1.01329
1.01238
1.01183
1.01259
1.01714
1.01056
1.01098
0.999618
1.00286
0.991739
1.00076
0.983545
0.994936
0.953433
1.01336
1.01152
1.00182
1.00498
1.01872
1.00954
1.01088
1.0076
1.00919
1.00273
1.01035
1.00188
1.0112
1.00483
1.00861
1.00634
1.01232
1.00649
1.01097
1.00855
1.01416
1.01118
1.01351
1.01362
1.01233
1.01471
1.01402
1.01353
1.01099
1.01656
1.00586
1.01342
1.01033
1.01427
1.01398
1.01553
1.01541
1.01652
1.01532
1.01944
1.01567
1.02206
1.01626
1.01966
1.01769
1.01646
1.01424
1.01282
1.01201
1.00953
1.00719
1.01017
1.00224
1.00864
1.01171
1.01336
1.01323
1.01357
1.01282
1.01485
1.01158
1.01204
1.0072
1.00554
1.00719
1.00974
1.0098
1.00722
1.00901
1.01069
1.01408
1.01009
1.01306
1.01415
1.01749
1.01029
1.01256
0.997792
1.00259
0.990135
1.00074
0.982182
0.996105
0.949445
1.0175
1.00806
0.997908
1.0085
1.00752
1.00377
1.00408
0.997902
1.00082
0.99833
1.01037
0.997049
1.00662
1.00289
1.00677
0.997681
1.01244
0.997453
1.01239
1.00558
1.01393
1.00538
1.0135
1.01192
1.01386
1.0122
1.01444
1.01344
1.0127
1.0116
1.01039
1.01313
1.01195
1.01262
1.01378
1.01239
1.01571
1.01573
1.01674
1.01425
1.01951
1.01604
1.01498
1.01759
1.01453
1.01837
1.01521
1.01667
1.01119
1.01309
1.0073
1.01053
1.00774
1.01659
1.00938
1.01055
1.01113
1.01431
1.0131
1.01182
1.01431
1.00962
1.01005