/*--------------------------------*- C++ -*----------------------------------*\
| =========                 |                                                 |
| \\      /  F ield         | OpenFOAM: The Open Source CFD Toolbox           |
|  \\    /   O peration     | Version:  2206                                  |
|   \\  /    A nd           | Website:  www.openfoam.com                      |
|    \\/     M anipulation  |                                                 |
\*---------------------------------------------------------------------------*/
FoamFile
{
    version     2.0;
    format      ascii;
    arch        "LSB;label=32;scalar=64";
    class       volScalarField;
    location    "160";
    object      TPrime2Mean;
}
// * * * * * * * * * * * * * * * * * * * * * * * * * * * * * * * * * * * * * //

dimensions      [0 0 0 2 0 0 0];

internalField   nonuniform List<scalar> 
93840
(
0.000436469
0.000395153
0.00045882
2.77577e-05
0.00299451
0.000779458
0.000251191
0.000332112
0.0015974
0.000367361
0.000219955
0.00113115
6.93971e-05
0.000843073
0.000525513
1.17121e-05
0.000801965
0.0014191
0.001162
0.000711938
0.0011276
2.67609e-05
0.000587791
0.00021969
4.52451e-05
1.42251e-05
0.00010393
0.00293989
2.72337e-05
0.000547543
0.00123818
0.000978915
0.000929807
0.000881815
9.81848e-05
0.00516264
3.11714e-05
0.000502059
0.000433977
0.000522535
6.51842e-05
0.000212554
3.58964e-05
0.00022387
0.00433747
4.91712e-05
0.000296565
0.000861218
0.000587447
0.000459224
7.71487e-05
0.000355574
0.000140884
0.000182304
0.00504641
2.97233e-05
0.000432278
0.000255994
0.000552415
4.96256e-05
0.000151663
0.000235688
2.84197e-05
0.000231095
0.000321546
0.0025403
4.14308e-05
0.000213338
0.000710254
0.000307957
0.000252506
2.20181e-05
0.000343463
2.82815e-05
0.000462208
0.00035147
0.000180794
0.00175278
2.76571e-05
0.000293865
0.000315986
0.000276281
6.40589e-05
4.26533e-05
9.81806e-05
1.19714e-05
0.00046991
9.68941e-05
0.000332317
0.000206162
0.00135796
4.53841e-05
0.000180342
0.00076665
0.000265178
0.000176627
2.21364e-05
0.000146784
4.35506e-05
0.000489706
1.81152e-05
0.000271835
0.000203388
0.000135672
0.000859457
2.19029e-05
0.000198538
0.000374798
0.000213196
5.49816e-05
2.0716e-05
2.79824e-05
8.63909e-05
0.000181376
2.31654e-05
0.000588869
0.000117222
0.000203711
0.00010888
0.000597163
3.61752e-05
0.000141315
0.000673496
0.00023489
7.03831e-05
1.01959e-05
0.000140016
0.000105661
0.000181143
3.37318e-05
0.000330627
2.16058e-05
0.000106431
0.000183844
8.37933e-05
0.000368665
2.23133e-05
0.000123125
0.000449112
0.000118706
3.70921e-05
1.97223e-05
4.67083e-05
6.1497e-05
5.09575e-05
5.36288e-05
0.000244519
2.98715e-05
0.000508397
8.71847e-05
0.000105493
6.51327e-05
0.000351054
3.86708e-05
0.000116237
0.000657873
0.000152602
2.89239e-05
1.17904e-05
8.29985e-05
4.26811e-05
0.000121071
8.60354e-05
0.000151257
2.88257e-05
0.000137378
3.37352e-05
6.77823e-05
0.000124737
4.73351e-05
0.000169548
2.43588e-05
0.000100604
0.000413273
5.24496e-05
2.03443e-05
1.24003e-05
1.63394e-05
4.04439e-05
3.87719e-05
4.4675e-05
7.4588e-05
3.17716e-05
0.000238019
3.367e-05
0.000343796
5.97685e-05
5.94382e-05
3.53016e-05
0.000270443
4.76905e-05
0.000108816
0.000620865
9.47809e-05
2.65861e-05
1.6797e-05
3.87715e-05
3.91272e-05
6.23717e-05
3.9464e-05
0.000107973
6.91863e-05
0.000119821
3.95929e-05
7.77378e-05
4.89705e-05
4.43447e-05
5.84195e-05
2.36462e-05
0.000101188
3.8311e-05
0.000106326
0.00042441
3.56208e-05
1.74206e-05
1.39956e-05
7.27923e-06
3.63892e-05
3.29925e-05
4.61803e-05
4.09339e-05
3.54392e-05
8.77837e-05
2.8005e-05
0.000166409
2.94628e-05
0.000198563
4.15047e-05
3.82866e-05
1.80618e-05
0.000239463
6.04129e-05
9.78912e-05
0.000567612
5.44697e-05
2.14374e-05
2.04239e-05
1.76827e-05
1.12642e-05
2.98493e-05
3.86276e-05
5.46732e-05
4.23059e-05
7.90985e-05
5.74489e-05
7.73619e-05
4.75485e-05
5.9534e-05
5.65875e-05
2.87773e-05
2.59714e-05
1.29771e-05
0.000111341
6.27007e-05
0.000140876
0.000379528
1.96471e-05
1.93649e-05
1.61999e-05
8.48156e-06
2.40724e-05
3.21785e-05
4.09851e-05
3.64013e-05
4.80078e-05
4.54388e-05
2.69815e-05
9.18362e-05
2.56873e-05
0.000127412
2.6892e-05
7.37965e-05
2.88167e-05
2.2243e-05
1.21751e-05
0.000291751
5.21027e-05
9.53315e-05
0.00043666
4.23768e-05
1.3048e-05
1.61786e-05
1.4532e-05
1.17132e-05
1.72621e-05
1.39741e-05
2.56694e-05
3.83395e-05
4.935e-05
3.95744e-05
6.68284e-05
4.91959e-05
5.64927e-05
4.59467e-05
4.78352e-05
5.48549e-05
2.02339e-05
1.52576e-05
1.07592e-05
0.000140062
7.58702e-05
0.000141536
0.000290528
1.48971e-05
1.00755e-05
1.22984e-05
1.18818e-05
1.51746e-05
3.29447e-05
2.57374e-05
3.79467e-05
3.89582e-05
3.49991e-05
3.69936e-05
4.91905e-05
2.03626e-05
9.17538e-05
1.54137e-05
0.000105199
2.38826e-05
5.62953e-05
2.1783e-05
1.23926e-05
1.17377e-05
3.99929e-05
4.30738e-05
0.000100899
0.000328993
3.74788e-05
1.57074e-05
1.72239e-05
8.14463e-06
4.76738e-05
9.64714e-06
7.98752e-06
1.35121e-05
1.97798e-05
2.33128e-05
4.25345e-05
4.43963e-05
3.41227e-05
5.89302e-05
3.97971e-05
4.50134e-05
4.20351e-05
4.48847e-05
4.34616e-05
1.72285e-05
9.05819e-06
1.12805e-05
2.28811e-05
7.76241e-05
0.000137842
0.000235635
1.71519e-05
9.75386e-06
6.32485e-06
8.69815e-06
3.96425e-06
2.52594e-05
1.44018e-05
5.09621e-05
2.90229e-05
3.70846e-05
3.33586e-05
3.74194e-05
3.41065e-05
5.02849e-05
1.8977e-05
8.91296e-05
1.66202e-05
7.65822e-05
2.25834e-05
4.40163e-05
1.69623e-05
5.99573e-06
2.22217e-06
1.27503e-05
4.34661e-05
0.000102852
0.000194655
5.24308e-05
9.75229e-06
2.90938e-05
1.03047e-05
5.60959e-05
8.94142e-06
2.32049e-05
1.87028e-05
7.24673e-06
1.74246e-05
2.33805e-05
2.70646e-05
3.87395e-05
4.14619e-05
3.08944e-05
4.83944e-05
3.68303e-05
2.85649e-05
4.02258e-05
4.18252e-05
3.19313e-05
1.47274e-05
6.77705e-06
1.62183e-06
1.67635e-05
7.06461e-05
0.000126288
0.000200627
1.31414e-05
9.21439e-06
8.47398e-06
1.30869e-05
8.28975e-06
1.34417e-05
7.48057e-06
2.55308e-05
1.02042e-05
5.44515e-05
3.26993e-05
3.86009e-05
3.27345e-05
3.7636e-05
3.00102e-05
5.14393e-05
1.82895e-05
8.51269e-05
1.62712e-05
5.72319e-05
1.90988e-05
3.67282e-05
1.07535e-05
4.96924e-06
1.80913e-06
1.66493e-05
4.76779e-05
0.000110589
0.000119591
6.22071e-05
9.95416e-06
3.48251e-05
1.24604e-05
4.4084e-05
1.69338e-05
4.95308e-05
7.05173e-06
1.76286e-05
2.25349e-05
9.33369e-06
2.55836e-05
1.76402e-05
3.12723e-05
3.80829e-05
4.30079e-05
2.9494e-05
4.22191e-05
3.51897e-05
2.35002e-05
3.7289e-05
3.61207e-05
2.37318e-05
1.69908e-05
5.86059e-06
2.13634e-06
1.97448e-05
6.08145e-05
0.000101872
0.000167773
1.22177e-05
1.024e-05
1.9501e-05
9.80651e-06
1.47538e-05
7.84726e-06
1.7475e-05
1.17215e-05
9.68323e-06
2.89411e-05
1.22489e-05
5.40925e-05
3.64012e-05
3.71075e-05
2.95212e-05
3.68996e-05
2.58063e-05
4.88163e-05
1.90367e-05
7.69625e-05
1.98463e-05
5.03391e-05
1.67302e-05
3.23128e-05
1.03414e-05
6.94745e-06
2.97862e-06
2.17843e-05
4.99474e-05
0.000127139
5.93869e-05
7.25918e-05
1.30261e-05
3.74836e-05
1.48754e-05
4.36978e-05
1.14218e-05
4.93878e-05
8.04898e-06
4.45907e-05
1.18298e-05
1.16743e-05
2.85916e-05
1.11672e-05
2.77552e-05
2.14706e-05
3.18774e-05
3.79474e-05
4.19899e-05
2.80117e-05
3.80941e-05
3.26723e-05
2.12942e-05
3.10843e-05
3.76195e-05
1.78465e-05
1.97662e-05
8.457e-06
3.43526e-06
2.49592e-05
5.47695e-05
9.09834e-05
0.000161679
1.06278e-05
1.73655e-05
1.59036e-05
7.78675e-06
2.1256e-05
1.58254e-05
1.5416e-05
8.49403e-06
1.49247e-05
1.12689e-05
9.95783e-06
3.0951e-05
1.54207e-05
4.85917e-05
3.95934e-05
3.20095e-05
2.80008e-05
3.57833e-05
2.5372e-05
5.04783e-05
1.90877e-05
6.87929e-05
1.71199e-05
4.55283e-05
1.53099e-05
2.98088e-05
9.97494e-06
1.1115e-05
3.47778e-06
2.99058e-05
5.50558e-05
0.000132706
2.52479e-05
7.00451e-05
1.76191e-05
2.82547e-05
3.50876e-05
2.9392e-05
7.35063e-06
4.44591e-05
6.65846e-06
4.59242e-05
4.72567e-06
3.55624e-05
1.08575e-05
8.51006e-06
3.24948e-05
1.06682e-05
2.9683e-05
2.02376e-05
3.34611e-05
3.81908e-05
4.32251e-05
2.44851e-05
3.61495e-05
3.15971e-05
2.02939e-05
2.65447e-05
3.73892e-05
1.38538e-05
2.10055e-05
1.10494e-05
4.51544e-06
2.72627e-05
4.9569e-05
9.41093e-05
0.000157686
1.1304e-05
1.49728e-05
7.68776e-06
1.53614e-05
1.59446e-05
1.56625e-05
2.44911e-05
1.1247e-05
1.25974e-05
9.02684e-06
1.24176e-05
1.23941e-05
1.13914e-05
2.95229e-05
1.95445e-05
4.40111e-05
3.84307e-05
2.88705e-05
2.64154e-05
3.45414e-05
2.39222e-05
5.07804e-05
2.47199e-05
5.08311e-05
1.8107e-05
4.14797e-05
1.52637e-05
2.84994e-05
8.02188e-06
1.44324e-05
6.16182e-06
3.75583e-05
5.50999e-05
0.000132958
1.72027e-05
4.46598e-05
2.44119e-05
1.88406e-05
4.93593e-05
3.05959e-05
2.0601e-05
2.32382e-05
8.16924e-06
3.85393e-05
5.95318e-06
3.91192e-05
3.86772e-06
3.00999e-05
1.10421e-05
8.22622e-06
3.37036e-05
1.07449e-05
3.00636e-05
2.09077e-05
3.51676e-05
3.77324e-05
4.28278e-05
2.23985e-05
2.9136e-05
3.71302e-05
2.0595e-05
2.18216e-05
3.68216e-05
1.0772e-05
1.89328e-05
1.38366e-05
7.32033e-06
3.13157e-05
4.52762e-05
8.45219e-05
0.000162693
1.39136e-05
9.09362e-06
1.31966e-05
2.50561e-05
2.88693e-05
2.44582e-05
2.07696e-05
1.23249e-05
2.64876e-05
1.00029e-05
1.20893e-05
9.40437e-06
1.0447e-05
1.47578e-05
1.02974e-05
2.82098e-05
2.42859e-05
4.06892e-05
4.03855e-05
2.74641e-05
2.60153e-05
3.39745e-05
2.63421e-05
5.21365e-05
2.57304e-05
4.72149e-05
1.61881e-05
3.7693e-05
1.49725e-05
2.68732e-05
7.77551e-06
1.60454e-05
8.53216e-06
4.66696e-05
5.26005e-05
0.000133929
1.29823e-05
2.74686e-05
2.97237e-05
9.26246e-06
4.32431e-05
1.79597e-05
4.9144e-05
2.3691e-05
1.91383e-05
2.40145e-05
9.90199e-06
3.55291e-05
6.28986e-06
3.52332e-05
3.83563e-06
2.69789e-05
1.16664e-05
8.03527e-06
3.25549e-05
9.92028e-06
3.01623e-05
2.17663e-05
3.3394e-05
3.7372e-05
4.22368e-05
2.053e-05
3.79139e-05
3.42415e-05
2.09725e-05
1.85373e-05
3.61464e-05
1.07148e-05
1.77698e-05
1.36556e-05
8.75592e-06
3.82828e-05
4.15658e-05
8.10045e-05
0.000153439
1.48713e-05
8.2483e-06
3.02867e-05
2.68211e-05
2.06791e-05
4.67953e-05
1.58319e-05
2.86992e-05
2.38458e-05
1.33441e-05
2.64421e-05
1.11099e-05
1.18881e-05
9.45743e-06
8.26737e-06
1.76628e-05
8.7279e-06
2.9606e-05
2.71537e-05
3.82831e-05
4.17549e-05
2.9083e-05
2.74342e-05
3.54996e-05
2.77161e-05
4.92139e-05
2.74055e-05
4.37574e-05
1.64147e-05
3.41101e-05
1.64706e-05
2.61634e-05
9.50958e-06
1.59115e-05
8.47313e-06
5.40827e-05
5.09415e-05
0.00013458
1.21287e-05
2.28992e-05
2.00049e-05
9.08798e-06
2.97774e-05
3.96818e-06
3.38189e-05
1.87106e-05
3.25545e-05
2.12993e-05
1.88846e-05
2.54431e-05
1.10412e-05
3.4414e-05
6.69937e-06
3.22921e-05
4.53292e-06
2.59499e-05
1.04254e-05
9.51433e-06
3.16052e-05
1.02408e-05
2.57932e-05
2.147e-05
3.32961e-05
3.65203e-05
4.24483e-05
1.99095e-05
3.6836e-05
3.2252e-05
2.15825e-05
1.63666e-05
2.88172e-05
1.23519e-05
1.7772e-05
1.30183e-05
8.20511e-06
4.61042e-05
4.06302e-05
7.73928e-05
0.000139892
1.40958e-05
1.24817e-05
3.40627e-05
3.06075e-05
1.82194e-05
2.52815e-05
2.86277e-05
5.61513e-05
1.78721e-05
2.63466e-05
2.66752e-05
1.21893e-05
2.36397e-05
1.1972e-05
1.15543e-05
9.58432e-06
6.61395e-06
1.95119e-05
8.58981e-06
2.95851e-05
3.0238e-05
3.65875e-05
4.00246e-05
2.9987e-05
2.47356e-05
3.67705e-05
2.80809e-05
4.65997e-05
2.73628e-05
4.04869e-05
1.67557e-05
3.00524e-05
1.65122e-05
2.30296e-05
1.29148e-05
1.56378e-05
6.96066e-06
6.12857e-05
4.87255e-05
0.000128262
1.05206e-05
1.766e-05
1.97272e-05
8.54167e-06
1.71806e-05
5.35134e-06
2.68206e-05
1.27964e-05
2.76556e-05
1.94232e-05
3.93131e-05
2.12157e-05
2.16824e-05
2.77586e-05
1.19201e-05
3.51277e-05
6.49856e-06
3.11951e-05
4.90588e-06
2.59277e-05
1.11488e-05
1.08265e-05
2.9011e-05
1.01664e-05
2.47884e-05
2.38528e-05
3.31492e-05
3.69365e-05
4.45086e-05
1.89215e-05
3.54903e-05
2.9523e-05
2.26714e-05
1.63359e-05
3.07466e-05
1.46149e-05
1.58421e-05
1.30961e-05
7.07421e-06
5.29367e-05
4.26092e-05
8.43247e-05
0.000137167
1.347e-05
1.94382e-05
2.95842e-05
3.21305e-05
1.47484e-05
1.59895e-05
2.04064e-05
2.74967e-05
3.11131e-05
4.6913e-05
1.88618e-05
2.42065e-05
2.67642e-05
1.21208e-05
2.08785e-05
1.36374e-05
1.08579e-05
9.66316e-06
6.14164e-06
1.95877e-05
8.38164e-06
2.93073e-05
3.04588e-05
3.58013e-05
3.90623e-05
3.10832e-05
2.48144e-05
3.89754e-05
2.76954e-05
4.43306e-05
2.77653e-05
3.74017e-05
1.77956e-05
2.64248e-05
1.61096e-05
2.34475e-05
1.52667e-05
1.51322e-05
4.35449e-06
5.76747e-05
4.71739e-05
0.000126428
1.18474e-05
1.66434e-05
2.11044e-05
6.09863e-06
7.58791e-06
1.27145e-05
2.1218e-05
8.45616e-06
1.85389e-05
1.08641e-05
2.98043e-05
1.37742e-05
3.41263e-05
3.03623e-05
1.94475e-05
2.88142e-05
1.17145e-05
3.6492e-05
5.60853e-06
3.06502e-05
5.05127e-06
2.48278e-05
1.18256e-05
1.17198e-05
2.80498e-05
1.03166e-05
2.43146e-05
2.6575e-05
3.41815e-05
3.79512e-05
4.45265e-05
1.8321e-05
3.41758e-05
2.77608e-05
2.46847e-05
1.87793e-05
3.22402e-05
1.7516e-05
1.66206e-05
1.20538e-05
3.67914e-06
3.95984e-05
4.52909e-05
8.20215e-05
0.000139483
1.24265e-05
2.63828e-05
2.79951e-05
3.17257e-05
9.90155e-06
1.43035e-05
2.66377e-05
1.59067e-05
2.07255e-05
2.82019e-05
2.6511e-05
4.59172e-05
1.95197e-05
1.83027e-05
2.55812e-05
1.32483e-05
1.92167e-05
1.56951e-05
1.00738e-05
1.03667e-05
6.44616e-06
1.84657e-05
1.00802e-05
2.88904e-05
3.15252e-05
3.54704e-05
3.7556e-05
3.28916e-05
2.44444e-05
4.08755e-05
2.66651e-05
4.20595e-05
2.79446e-05
3.36358e-05
1.91273e-05
2.38243e-05
1.38372e-05
2.22562e-05
1.67374e-05
1.35895e-05
3.36531e-06
4.74527e-05
4.25296e-05
0.000122942
1.74706e-05
1.93047e-05
2.20815e-05
8.62982e-06
1.26459e-05
1.74674e-05
1.79159e-05
9.56588e-06
2.04753e-05
7.75098e-06
1.44788e-05
7.9898e-06
2.75901e-05
1.31098e-05
3.50413e-05
3.05999e-05
1.83271e-05
3.05594e-05
9.86626e-06
3.66115e-05
4.13437e-06
3.04729e-05
4.90217e-06
2.40371e-05
1.29338e-05
1.24801e-05
2.66727e-05
1.1207e-05
2.37705e-05
2.90679e-05
3.40293e-05
4.02031e-05
4.40844e-05
1.82612e-05
3.3642e-05
2.56119e-05
2.78767e-05
2.20722e-05
3.59165e-05
1.87736e-05
1.76144e-05
1.11371e-05
3.23232e-06
3.57208e-05
4.9538e-05
7.25736e-05
0.000140574
1.05153e-05
3.32771e-05
2.6748e-05
1.62336e-05
1.40036e-05
1.73803e-05
2.19254e-05
1.55546e-05
2.39103e-05
1.77282e-05
2.07437e-05
2.84334e-05
2.41045e-05
4.33621e-05
1.8944e-05
1.9118e-05
2.31181e-05
1.5372e-05
1.72172e-05
1.68629e-05
8.44809e-06
1.15983e-05
6.27815e-06
1.88301e-05
1.16846e-05
2.83567e-05
3.16307e-05
3.56738e-05
3.64645e-05
3.45671e-05
2.43568e-05
4.61406e-05
2.69627e-05
4.02526e-05
2.81236e-05
3.0783e-05
2.04414e-05
2.25042e-05
1.29883e-05
2.14083e-05
1.78684e-05
1.14984e-05
3.1392e-06
4.41242e-05
4.10831e-05
0.000134951
2.03865e-05
2.32824e-05
2.28275e-05
6.1581e-06
1.22859e-05
1.59599e-05
2.99452e-05
6.65973e-06
9.37188e-06
8.91218e-06
1.21896e-05
8.21933e-06
1.41458e-05
7.68713e-06
2.69111e-05
1.47365e-05
3.85436e-05
3.00471e-05
1.53013e-05
3.0546e-05
9.37715e-06
3.73152e-05
3.12753e-06
2.95202e-05
5.71903e-06
1.62469e-05
1.22699e-05
1.40663e-05
2.56098e-05
1.2504e-05
2.19909e-05
3.01416e-05
3.33796e-05
3.9913e-05
4.37828e-05
1.73585e-05
3.44045e-05
2.38501e-05
3.06035e-05
2.51124e-05
3.61115e-05
2.15803e-05
1.8473e-05
9.9744e-06
3.30156e-06
3.67846e-05
5.62967e-05
5.61061e-05
0.000138993
9.80524e-06
3.28656e-05
2.89256e-05
2.47734e-05
1.93341e-05
1.54445e-05
1.85671e-05
1.77239e-05
1.7424e-05
1.27723e-05
2.54763e-05
1.85573e-05
1.91674e-05
2.82194e-05
2.12661e-05
4.14914e-05
1.74125e-05
1.90107e-05
1.96295e-05
1.72193e-05
1.57797e-05
1.7177e-05
7.51411e-06
1.34455e-05
6.22157e-06
1.86915e-05
1.29442e-05
2.73236e-05
3.19365e-05
3.65858e-05
3.50425e-05
3.54894e-05
2.44345e-05
4.80176e-05
2.83663e-05
3.92732e-05
2.8498e-05
2.8456e-05
2.10369e-05
2.09448e-05
1.4354e-05
1.91881e-05
1.90376e-05
1.03787e-05
3.8763e-06
4.16523e-05
3.96232e-05
0.000150343
2.28477e-05
2.41784e-05
2.69257e-05
6.41467e-06
1.71553e-05
1.4345e-05
2.48989e-05
8.56599e-06
1.27902e-05
5.44934e-06
9.12384e-06
8.00874e-06
1.31643e-05
8.0226e-06
1.29097e-05
7.55358e-06
2.71144e-05
1.54896e-05
3.73176e-05
3.04271e-05
1.59613e-05
3.1963e-05
9.00024e-06
3.83131e-05
3.50012e-06
2.98992e-05
6.15248e-06
1.54455e-05
1.27682e-05
1.58326e-05
2.42342e-05
1.43373e-05
2.19346e-05
3.06001e-05
3.31279e-05
4.26763e-05
4.42244e-05
1.67437e-05
3.40412e-05
2.29156e-05
3.16684e-05
2.58357e-05
3.46161e-05
2.29457e-05
1.96339e-05
9.96339e-06
4.45687e-06
3.41075e-05
6.18204e-05
4.79922e-05
0.000119164
1.01108e-05
2.57487e-05
2.46881e-05
4.87499e-05
1.84288e-05
2.99116e-05
1.55355e-05
1.72701e-05
1.59325e-05
1.37348e-05
1.4534e-05
1.08802e-05
2.33857e-05
1.71183e-05
1.83883e-05
2.50562e-05
1.95128e-05
3.99056e-05
1.58505e-05
2.0247e-05
1.74681e-05
1.93482e-05
1.36145e-05
1.7364e-05
6.24328e-06
1.47197e-05
6.35741e-06
1.98293e-05
1.39725e-05
2.48747e-05
3.26207e-05
3.75572e-05
3.45524e-05
3.70597e-05
2.49852e-05
5.02003e-05
2.90291e-05
3.77383e-05
2.97308e-05
2.66943e-05
2.14043e-05
1.96557e-05
1.51575e-05
1.74583e-05
2.099e-05
1.0767e-05
4.73545e-06
3.80594e-05
3.7271e-05
0.000143732
2.19537e-05
3.6172e-05
2.97949e-05
1.03898e-05
3.34616e-05
1.43435e-05
1.95391e-05
1.75078e-05
1.69384e-05
5.43466e-06
1.23698e-05
8.91271e-06
1.17254e-05
7.93732e-06
1.2226e-05
7.43109e-06
1.27595e-05
7.5228e-06
2.74925e-05
1.53047e-05
3.5371e-05
3.05438e-05
1.81358e-05
3.12521e-05
8.66456e-06
3.63322e-05
3.6817e-06
2.59683e-05
7.16416e-06
1.52267e-05
1.31052e-05
1.74473e-05
2.28352e-05
1.68823e-05
2.1969e-05
3.0285e-05
3.3213e-05
4.58103e-05
4.30093e-05
1.63255e-05
3.34811e-05
2.18715e-05
3.1755e-05
2.69446e-05
3.3373e-05
2.52844e-05
2.17156e-05
9.46305e-06
5.18344e-06
3.02253e-05
6.74761e-05
4.0325e-05
0.000107107
5.67726e-06
1.14383e-05
1.68089e-05
8.69652e-05
1.5585e-05
4.91645e-05
2.16656e-05
2.30756e-05
1.94425e-05
1.75944e-05
1.27049e-05
1.2611e-05
1.64284e-05
9.16645e-06
2.11084e-05
1.50745e-05
1.63269e-05
2.36587e-05
1.72265e-05
3.41565e-05
1.5382e-05
2.17148e-05
1.51989e-05
1.87418e-05
1.17888e-05
1.96903e-05
4.68017e-06
1.66331e-05
6.67679e-06
2.10003e-05
1.45967e-05
2.66706e-05
3.37098e-05
3.84011e-05
3.47718e-05
3.76699e-05
2.53979e-05
5.22092e-05
2.92604e-05
3.50432e-05
3.00386e-05
2.46579e-05
2.14087e-05
2.03901e-05
1.54724e-05
1.50154e-05
2.30578e-05
1.07818e-05
5.84193e-06
3.52736e-05
3.68484e-05
0.000135605
1.88348e-05
3.90351e-05
4.48459e-05
1.74979e-05
3.70878e-05
2.84377e-05
1.72394e-05
2.82928e-05
1.45247e-05
1.79236e-05
1.42407e-05
7.01721e-06
1.43681e-05
7.47706e-06
1.13044e-05
4.62042e-06
1.10907e-05
6.7012e-06
1.1929e-05
6.8045e-06
2.69687e-05
1.47788e-05
3.27916e-05
2.90376e-05
1.85705e-05
3.21907e-05
8.48872e-06
2.86146e-05
4.09091e-06
2.45142e-05
7.83871e-06
1.51619e-05
1.35141e-05
1.96792e-05
2.20399e-05
1.93304e-05
2.17558e-05
3.10505e-05
3.31789e-05
4.89484e-05
4.19227e-05
1.62695e-05
3.35888e-05
2.1071e-05
3.19085e-05
2.70349e-05
3.26072e-05
2.59761e-05
2.21844e-05
8.04601e-06
6.45549e-06
2.97905e-05
7.66776e-05
3.91188e-05
0.000102751
3.71709e-06
6.0969e-06
2.04513e-05
0.000103627
1.90988e-05
6.31447e-05
3.04533e-05
3.68446e-05
2.31803e-05
2.41611e-05
1.32414e-05
1.8931e-05
1.2935e-05
1.14823e-05
1.65334e-05
7.29615e-06
1.92454e-05
1.33339e-05
1.49214e-05
2.13412e-05
1.57999e-05
2.79147e-05
1.47422e-05
2.27537e-05
1.22047e-05
1.81753e-05
1.00486e-05
2.16168e-05
3.91366e-06
1.80315e-05
7.11224e-06
2.20819e-05
1.49519e-05
2.07082e-05
3.39929e-05
3.91943e-05
3.50481e-05
3.94254e-05
2.49975e-05
5.48899e-05
2.93742e-05
3.3967e-05
2.92039e-05
2.19714e-05
1.99469e-05
2.02312e-05
1.59369e-05
1.37312e-05
2.44276e-05
1.02888e-05
7.2321e-06
3.51651e-05
3.18018e-05
0.000121994
2.061e-05
4.46759e-05
5.5965e-05
3.98272e-05
3.63325e-05
4.39953e-05
1.46244e-05
3.97963e-05
1.08295e-05
3.20691e-05
1.14886e-05
2.11555e-05
1.52571e-05
7.821e-06
1.39453e-05
7.01828e-06
1.11547e-05
3.34968e-06
1.26767e-05
5.3662e-06
1.27589e-05
6.11887e-06
2.50294e-05
1.44131e-05
2.60343e-05
2.69419e-05
1.8869e-05
3.19878e-05
9.0911e-06
2.74524e-05
4.4343e-06
2.40802e-05
8.62765e-06
1.64751e-05
1.38085e-05
2.28155e-05
2.16262e-05
2.12351e-05
2.15997e-05
3.20728e-05
3.35339e-05
5.14147e-05
4.03239e-05
1.53848e-05
3.31933e-05
2.07267e-05
3.08678e-05
2.63086e-05
3.36369e-05
2.61675e-05
2.29377e-05
6.71733e-06
8.22308e-06
3.2551e-05
7.97462e-05
2.98951e-05
7.76709e-05
3.1285e-06
6.59095e-06
2.03338e-05
0.000111997
2.13509e-05
5.71274e-05
3.74779e-05
4.72483e-05
2.39124e-05
3.05026e-05
1.91827e-05
2.27198e-05
1.41488e-05
1.74374e-05
1.13875e-05
1.03388e-05
1.5203e-05
4.19187e-06
1.60338e-05
1.21926e-05
1.45561e-05
1.91768e-05
1.3442e-05
2.73595e-05
1.47182e-05
2.43675e-05
1.11462e-05
1.91928e-05
9.12833e-06
2.23156e-05
3.72394e-06
1.98518e-05
8.30014e-06
2.40888e-05
1.58767e-05
2.31665e-05
3.32248e-05
4.02448e-05
3.5922e-05
4.09974e-05
2.54494e-05
5.64479e-05
2.89458e-05
3.30729e-05
2.70585e-05
2.0233e-05
1.87683e-05
2.03375e-05
1.37438e-05
1.21573e-05
2.54693e-05
1.02792e-05
8.93081e-06
3.69286e-05
2.80044e-05
0.000101409
1.20628e-05
5.35807e-05
4.82677e-05
5.88441e-05
3.85086e-05
6.33122e-05
1.29485e-05
4.39484e-05
2.19165e-05
4.49657e-05
1.44438e-05
3.05866e-05
9.4903e-06
2.03096e-05
1.43743e-05
8.50891e-06
1.41914e-05
6.4559e-06
1.20744e-05
2.84793e-06
1.27844e-05
4.72258e-06
1.31465e-05
5.16755e-06
2.45079e-05
1.15741e-05
2.27852e-05
2.69745e-05
1.99237e-05
3.03965e-05
9.42496e-06
2.61742e-05
5.04952e-06
2.38734e-05
9.77752e-06
1.66553e-05
1.38546e-05
2.47486e-05
2.21829e-05
2.34351e-05
2.21436e-05
3.3026e-05
3.40402e-05
5.40037e-05
3.92673e-05
1.53182e-05
3.51691e-05
1.97407e-05
2.90695e-05
2.54701e-05
3.11541e-05
2.48801e-05
2.28598e-05
6.89779e-06
9.9212e-06
3.65536e-05
8.27195e-05
2.89808e-05
8.10647e-05
3.93549e-06
3.04091e-06
4.29336e-05
0.00011216
2.42127e-05
5.28373e-05
4.71288e-05
4.43446e-05
3.55637e-05
3.77146e-05
2.66582e-05
2.93489e-05
1.79045e-05
2.04943e-05
1.49439e-05
1.64078e-05
1.16704e-05
9.61367e-06
1.43067e-05
3.93629e-06
1.44908e-05
9.37478e-06
1.30906e-05
1.65114e-05
1.28789e-05
2.62219e-05
1.36058e-05
2.37322e-05
1.01031e-05
1.98847e-05
9.43721e-06
2.21262e-05
4.72938e-06
2.17151e-05
9.07324e-06
2.49092e-05
1.65149e-05
2.47611e-05
3.21746e-05
4.13562e-05
3.63073e-05
4.28008e-05
2.62392e-05
5.80929e-05
2.7959e-05
3.13022e-05
2.68221e-05
1.91748e-05
1.84076e-05
1.91314e-05
1.39731e-05
1.05623e-05
2.52947e-05
1.05588e-05
1.10427e-05
4.0482e-05
2.88037e-05
9.41385e-05
1.97555e-05
6.34413e-05
7.73917e-05
8.92437e-05
3.05511e-05
6.49099e-05
1.24695e-05
4.68809e-05
3.37934e-05
4.36505e-05
2.70557e-05
3.85184e-05
1.36e-05
2.64626e-05
8.79651e-06
1.72586e-05
1.42518e-05
8.61047e-06
1.38285e-05
6.73582e-06
1.1573e-05
2.33904e-06
1.16772e-05
4.83538e-06
1.18097e-05
4.34288e-06
2.39225e-05
1.06443e-05
2.11313e-05
2.73202e-05
2.0412e-05
2.94528e-05
9.60966e-06
2.55219e-05
5.56736e-06
2.42482e-05
1.05771e-05
1.91239e-05
1.39074e-05
2.65783e-05
2.21537e-05
2.53459e-05
2.30898e-05
3.46161e-05
3.47034e-05
5.53218e-05
3.77589e-05
1.53245e-05
3.43247e-05
1.83284e-05
2.49585e-05
2.17756e-05
2.76527e-05
1.91311e-05
2.23312e-05
7.46243e-06
1.22965e-05
4.43803e-05
8.55806e-05
2.61677e-05
7.35172e-05
4.74246e-06
7.89655e-06
3.4124e-05
0.000124633
2.31797e-05
6.35548e-05
5.099e-05
3.8345e-05
4.1168e-05
4.47013e-05
3.37708e-05
2.92827e-05
2.52624e-05
2.83212e-05
1.73357e-05
1.52651e-05
1.48162e-05
1.4766e-05
1.18131e-05
9.26913e-06
1.39218e-05
3.81476e-06
1.36166e-05
7.90918e-06
1.0646e-05
1.60893e-05
1.22002e-05
1.54027e-05
1.23888e-05
2.22832e-05
1.00342e-05
2.00505e-05
9.41239e-06
2.17568e-05
5.42474e-06
2.39717e-05
1.00963e-05
2.60515e-05
1.75954e-05
2.59871e-05
3.10158e-05
4.27982e-05
3.69896e-05
4.34626e-05
2.67909e-05
5.93576e-05
2.68874e-05
3.01795e-05
2.565e-05
1.75614e-05
1.76844e-05
1.55058e-05
1.50368e-05
8.65785e-06
2.32297e-05
1.05643e-05
1.39159e-05
4.62496e-05
2.24279e-05
7.27291e-05
1.21937e-05
6.41253e-05
7.54448e-05
8.60303e-05
3.78354e-05
4.35864e-05
2.01966e-05
3.9122e-05
2.96577e-05
4.12491e-05
3.43994e-05
3.46175e-05
2.206e-05
3.20742e-05
1.21386e-05
2.50122e-05
9.47692e-06
1.50329e-05
1.52609e-05
8.87997e-06
1.40142e-05
6.8831e-06
1.07599e-05
2.49873e-06
1.05819e-05
4.49217e-06
1.1121e-05
4.30446e-06
2.30262e-05
1.51131e-05
1.96217e-05
2.80142e-05
2.07539e-05
2.79291e-05
1.0429e-05
2.4336e-05
6.26054e-06
2.4469e-05
1.11123e-05
2.02631e-05
1.44221e-05
2.8177e-05
2.32707e-05
2.7513e-05
2.4453e-05
3.57663e-05
3.6038e-05
5.69819e-05
3.64171e-05
1.56236e-05
3.2783e-05
1.71167e-05
2.33571e-05
1.73244e-05
2.56582e-05
1.52018e-05
2.25433e-05
7.57454e-06
1.58127e-05
5.0163e-05
8.07392e-05
2.40711e-05
7.25665e-05
6.91995e-06
8.84701e-06
3.81067e-05
0.000114483
1.19113e-05
6.40311e-05
6.18014e-05
3.924e-05
4.11564e-05
3.65812e-05
3.97103e-05
3.55689e-05
2.91119e-05
2.67775e-05
2.48501e-05
2.693e-05
1.2257e-05
1.5194e-05
1.58473e-05
1.33077e-05
1.20744e-05
8.86268e-06
1.39412e-05
3.03384e-06
1.25171e-05
7.07519e-06
1.00948e-05
1.59295e-05
1.25526e-05
1.54646e-05
1.22673e-05
2.129e-05
9.81355e-06
1.95835e-05
9.33029e-06
2.07648e-05
5.82633e-06
2.61648e-05
1.14713e-05
2.74241e-05
1.87499e-05
2.73894e-05
3.24207e-05
4.45331e-05
3.76441e-05
4.47725e-05
2.7705e-05
6.02975e-05
2.55755e-05
2.86117e-05
2.52952e-05
1.65175e-05
1.65078e-05
1.40286e-05
1.5597e-05
6.94521e-06
2.20323e-05
1.04468e-05
1.72395e-05
4.74162e-05
2.19637e-05
6.03702e-05
1.40847e-05
5.33089e-05
7.89964e-05
0.000100746
3.38051e-05
2.75259e-05
2.44975e-05
3.84651e-05
3.65777e-05
3.23244e-05
4.02568e-05
3.2936e-05
3.64321e-05
2.51572e-05
2.41447e-05
2.80772e-05
1.16085e-05
2.42753e-05
1.00618e-05
1.45586e-05
1.48443e-05
9.989e-06
1.34085e-05
7.19336e-06
1.0007e-05
2.71932e-06
9.55292e-06
4.24572e-06
1.08008e-05
3.82026e-06
2.26554e-05
1.52815e-05
1.81761e-05
2.78091e-05
2.07902e-05
2.66222e-05
1.15338e-05
2.33016e-05
6.81905e-06
2.46409e-05
1.22104e-05
2.11474e-05
1.59229e-05
2.95613e-05
2.38891e-05
2.88892e-05
2.61736e-05
3.64825e-05
3.63283e-05
5.81519e-05
3.49246e-05
1.67107e-05
3.10053e-05
1.63278e-05
2.25603e-05
1.35517e-05
2.37645e-05
1.34577e-05
2.19495e-05
7.27102e-06
1.97783e-05
5.13474e-05
8.14128e-05
2.12031e-05
7.22769e-05
8.08195e-06
8.76669e-06
3.71141e-05
8.15644e-05
1.61493e-05
7.10034e-05
6.15606e-05
5.00948e-05
4.62407e-05
2.88504e-05
3.45134e-05
3.47871e-05
3.34323e-05
3.27795e-05
2.67655e-05
2.49097e-05
2.56855e-05
2.58077e-05
1.30376e-05
1.42853e-05
1.65417e-05
1.35625e-05
1.17676e-05
7.98148e-06
1.30097e-05
2.87122e-06
1.10646e-05
7.03468e-06
9.47578e-06
8.69378e-06
1.22844e-05
1.5108e-05
1.09719e-05
2.12059e-05
1.01795e-05
1.8492e-05
9.24417e-06
1.98249e-05
6.56156e-06
2.75089e-05
1.32957e-05
2.60301e-05
1.96509e-05
2.92535e-05
3.33032e-05
4.38485e-05
3.9487e-05
4.61237e-05
2.88209e-05
6.13768e-05
2.51946e-05
2.83672e-05
2.50055e-05
1.57946e-05
1.5566e-05
1.04087e-05
1.71084e-05
6.67259e-06
2.17688e-05
9.96168e-06
2.2046e-05
4.82905e-05
2.03823e-05
5.39255e-05
1.74991e-05
5.64593e-05
8.76475e-05
9.07369e-05
2.75287e-05
1.55839e-05
2.98967e-05
3.02885e-05
3.22306e-05
3.6264e-05
3.79118e-05
3.53038e-05
3.50415e-05
2.50809e-05
3.56764e-05
2.58666e-05
2.34179e-05
2.56629e-05
1.32775e-05
2.4392e-05
1.0616e-05
1.51601e-05
1.45848e-05
9.66602e-06
1.32446e-05
7.78346e-06
8.76313e-06
3.11894e-06
8.59012e-06
3.92472e-06
1.00362e-05
5.28263e-06
2.14995e-05
1.49511e-05
1.61873e-05
2.74111e-05
1.88067e-05
2.51789e-05
1.12976e-05
2.19258e-05
7.54563e-06
2.47185e-05
1.34858e-05
2.2669e-05
1.71563e-05
3.09371e-05
2.43689e-05
2.92841e-05
2.8785e-05
3.69162e-05
3.67333e-05
5.84189e-05
3.38876e-05
1.78902e-05
2.93131e-05
1.55897e-05
2.1181e-05
1.2682e-05
2.24063e-05
1.23291e-05
2.18954e-05
8.32611e-06
2.4474e-05
5.75151e-05
8.15042e-05
1.855e-05
7.15225e-05
6.28459e-06
1.29587e-05
2.74621e-05
6.25137e-05
1.84618e-05
7.03202e-05
4.99543e-05
4.20689e-05
4.70376e-05
3.75135e-05
3.42073e-05
2.64854e-05
3.5364e-05
3.30069e-05
3.17268e-05
2.52635e-05
2.68249e-05
1.77409e-05
2.45413e-05
1.96357e-05
1.24114e-05
1.33871e-05
1.60777e-05
1.17842e-05
1.08908e-05
7.07595e-06
1.19873e-05
2.85861e-06
9.96849e-06
5.66602e-06
8.56473e-06
8.19875e-06
1.20633e-05
1.4379e-05
1.02081e-05
2.12653e-05
1.04597e-05
1.75251e-05
1.0157e-05
1.90486e-05
7.40119e-06
2.87895e-05
1.51382e-05
2.72812e-05
2.08765e-05
3.05223e-05
3.55919e-05
4.39333e-05
4.126e-05
4.7076e-05
2.97619e-05
6.27187e-05
2.40384e-05
2.8242e-05
2.481e-05
1.48109e-05
1.52545e-05
8.6683e-06
1.76645e-05
6.55231e-06
2.08273e-05
1.12167e-05
2.75009e-05
5.54147e-05
1.73098e-05
4.90663e-05
1.86357e-05
4.15416e-05
7.68688e-05
6.59663e-05
2.25854e-05
7.528e-06
3.43179e-05
2.42055e-05
2.73427e-05
2.93744e-05
3.43501e-05
4.01415e-05
3.01144e-05
3.35824e-05
3.6929e-05
2.58424e-05
3.19298e-05
2.15968e-05
2.29639e-05
2.26123e-05
1.32532e-05
2.09209e-05
1.12925e-05
1.60368e-05
1.46394e-05
9.28963e-06
1.25432e-05
8.11022e-06
8.56192e-06
3.12864e-06
8.15751e-06
4.02441e-06
9.68415e-06
4.57126e-06
1.98156e-05
1.48269e-05
1.44963e-05
2.6329e-05
1.92818e-05
2.35363e-05
1.1634e-05
2.09981e-05
7.93887e-06
2.4177e-05
1.45154e-05
2.39954e-05
1.85984e-05
3.24802e-05
2.55796e-05
2.86582e-05
3.10765e-05
3.69109e-05
3.76307e-05
5.85531e-05
3.25595e-05
1.90339e-05
2.77659e-05
1.53223e-05
2.04233e-05
1.12839e-05
2.12008e-05
1.09411e-05
2.2207e-05
1.00559e-05
3.12926e-05
6.58749e-05
8.2344e-05
1.70632e-05
6.69804e-05
4.518e-06
1.11029e-05
1.68555e-05
4.81481e-05
1.72897e-05
5.4857e-05
4.99415e-05
3.50416e-05
3.69454e-05
3.41824e-05
3.61531e-05
3.49765e-05
3.44137e-05
2.81837e-05
3.22434e-05
2.73348e-05
3.30025e-05
2.14567e-05
2.58906e-05
1.77619e-05
2.17573e-05
1.84212e-05
1.25579e-05
1.40406e-05
1.38902e-05
1.16452e-05
1.04257e-05
6.7839e-06
1.03528e-05
2.84678e-06
8.68978e-06
4.59661e-06
7.69253e-06
7.59493e-06
1.135e-05
1.37492e-05
1.03667e-05
2.08779e-05
1.01551e-05
1.6968e-05
1.0741e-05
1.82558e-05
8.22488e-06
2.96429e-05
1.68562e-05
2.7377e-05
2.19951e-05
3.18897e-05
3.83561e-05
4.25826e-05
4.33868e-05
4.82748e-05
3.05372e-05
6.35041e-05
2.38362e-05
2.23545e-05
2.41865e-05
1.39406e-05
1.45938e-05
7.30958e-06
1.7324e-05
7.13634e-06
2.11879e-05
1.17132e-05
3.24766e-05
6.15222e-05
1.51375e-05
4.64799e-05
1.78516e-05
4.11563e-05
7.16696e-05
5.4506e-05
2.04812e-05
3.97313e-06
3.81e-05
1.81309e-05
1.8628e-05
2.61488e-05
2.38159e-05
3.13988e-05
3.06567e-05
3.64998e-05
3.18954e-05
2.55329e-05
3.65524e-05
2.31622e-05
3.23637e-05
2.08374e-05
2.21937e-05
2.19531e-05
1.45406e-05
2.05422e-05
1.08719e-05
1.56564e-05
1.37742e-05
9.16811e-06
1.16693e-05
8.14622e-06