/*--------------------------------*- C++ -*----------------------------------*\
| =========                 |                                                 |
| \\      /  F ield         | OpenFOAM: The Open Source CFD Toolbox           |
|  \\    /   O peration     | Version:  2206                                  |
|   \\  /    A nd           | Website:  www.openfoam.com                      |
|    \\/     M anipulation  |                                                 |
\*---------------------------------------------------------------------------*/
FoamFile
{
    version     2.0;
    format      ascii;
    arch        "LSB;label=32;scalar=64";
    class       volVectorField;
    location    "160";
    object      U;
}
// * * * * * * * * * * * * * * * * * * * * * * * * * * * * * * * * * * * * * //

dimensions      [0 1 -1 0 0 0 0];

internalField   nonuniform List<vector> 
93840
(
(0.72217 -0.768713 8.87398e-18)
(0.824535 0.390443 1.09283e-17)
(0.658432 -0.753579 8.22389e-18)
(0.732078 -0.324225 -1.68667e-18)
(0.858951 0.36953 5.12819e-18)
(0.588496 -0.654034 1.05387e-17)
(1.04893 0.366583 5.71361e-17)
(0.765806 -0.109491 1.36617e-17)
(0.828503 0.321968 -5.41223e-18)
(0.598791 -0.493618 2.12451e-17)
(0.869465 -0.0740601 -1.87145e-17)
(1.04773 0.0846853 9.05173e-17)
(0.824171 -0.122638 2.06082e-17)
(0.897414 0.19419 -6.94264e-17)
(0.586504 -0.358701 -8.22002e-18)
(0.826064 0.0495336 -1.41795e-16)
(0.827585 -0.00809671 -5.12058e-17)
(0.918253 0.0981186 7.30658e-17)
(0.744818 -0.147814 9.92981e-18)
(0.869066 0.100566 -6.57652e-17)
(0.59953 -0.281186 4.69043e-18)
(0.807033 0.00264158 -6.29317e-18)
(0.837426 0.0582913 -1.653e-16)
(0.821089 -0.0508487 -1.06887e-16)
(1.05847 0.172256 1.39045e-16)
(0.729893 -0.040095 -8.98173e-18)
(0.89986 0.0823465 7.58078e-17)
(0.616354 -0.210761 3.40539e-18)
(0.792421 0.0534502 5.1784e-17)
(0.783981 -0.0157578 1.51459e-17)
(0.923441 0.0868389 -1.50236e-16)
(0.778117 -0.135289 -2.13131e-16)
(0.951779 0.0932069 9.95146e-17)
(0.820381 -0.0395014 -2.46952e-17)
(0.89016 0.0609732 -4.70348e-17)
(0.622929 -0.175427 -1.82035e-17)
(0.786218 0.00382901 5.69607e-17)
(0.807254 0.0824653 5.94068e-17)
(0.778051 -0.0468039 -6.44813e-19)
(0.930399 0.0872865 -1.53103e-16)
(0.718862 -0.0396764 -3.05502e-16)
(0.966805 0.0661974 -6.89372e-17)
(0.813717 -0.00514879 -9.3287e-17)
(0.897985 0.0592873 6.22064e-17)
(0.625114 -0.12689 8.18807e-18)
(0.813532 0.0554861 -4.81533e-18)
(0.81258 -0.000998809 7.12845e-17)
(0.876237 0.0163999 9.85363e-17)
(0.697367 -0.162419 2.2113e-16)
(0.930746 0.0835658 1.09829e-16)
(0.81521 -0.0148205 2.08987e-17)
(0.849232 0.0418264 1.16949e-16)
(0.827399 0.00129292 1.83042e-17)
(0.875017 0.052585 -4.72644e-17)
(0.633415 -0.0806302 -1.12553e-18)
(0.803065 0.0124312 1.13336e-16)
(0.798286 0.060632 5.59576e-19)
(0.78571 -0.040134 6.16499e-17)
(0.911845 0.196375 1.22134e-16)
(0.744185 -0.0019059 1.21752e-16)
(0.887797 0.0672583 8.90394e-17)
(0.780354 0.00679155 -8.73233e-17)
(0.868731 0.0490612 -1.33575e-16)
(0.831457 0.0213472 -5.40389e-17)
(0.871867 0.045738 5.54833e-17)
(0.640088 -0.0311679 4.47063e-18)
(0.825076 0.0436169 -1.01362e-16)
(0.817025 0.0353846 9.75288e-17)
(0.854399 0.0588445 -2.11485e-17)
(0.779325 -0.0609942 3.41344e-17)
(0.916443 0.0737683 3.5196e-17)
(0.800097 -0.00446018 -7.47638e-17)
(0.796339 0.0189699 -5.16801e-17)
(0.808354 0.0218865 -8.45892e-17)
(0.809581 0.0178892 1.62534e-16)
(0.835565 0.0345113 -3.60443e-17)
(0.837713 0.0349799 -4.68917e-17)
(0.659535 0.0154999 4.04764e-18)
(0.787446 0.00130039 -2.57685e-17)
(0.81273 0.0233848 -1.36014e-16)
(0.792497 -0.0566319 1.04367e-16)
(0.915136 0.0370374 6.46122e-17)
(0.80353 -0.0037785 1.86082e-17)
(0.858208 0.0570471 1.02257e-17)
(0.78476 0.0206966 1.78355e-16)
(0.821913 0.0305703 1.73117e-16)
(0.808872 0.0239292 -5.92348e-17)
(0.808492 0.0229098 -1.12121e-16)
(0.850149 0.0414923 -4.98956e-17)
(0.82959 0.0147982 3.62053e-17)
(0.689066 0.0632204 4.81758e-18)
(0.82423 0.053122 -1.00536e-16)
(0.803832 0.0163092 -7.12041e-17)
(0.85821 0.0717609 -1.81762e-16)
(0.760485 -0.00768584 3.72564e-17)
(0.861126 0.0798974 3.39905e-17)
(0.786813 0.0187086 -1.0463e-17)
(0.795518 0.0156099 -4.08453e-17)
(0.845777 0.0328243 -6.38588e-17)
(0.763734 0.000691033 -4.24095e-17)
(0.819318 0.0265332 -7.05925e-17)
(0.776581 0.00944676 1.41889e-16)
(0.848108 0.0325245 -1.19141e-17)
(0.812718 0.00806996 -1.41015e-17)
(0.735187 0.10171 4.07556e-18)
(0.802581 -0.0043299 6.78738e-17)
(0.823821 0.040189 -6.0171e-17)
(0.784093 -0.0380689 7.86913e-18)
(0.901612 0.0811389 -2.96825e-16)
(0.79937 -0.0165246 -1.59223e-16)
(0.82621 0.0437766 -1.23277e-16)
(0.823094 0.0313553 -5.86548e-17)
(0.818346 0.0183392 -5.48893e-17)
(0.801394 0.0206804 1.13557e-16)
(0.792228 0.0174127 1.74096e-16)
(0.802032 0.0247655 -2.37469e-17)
(0.79805 0.0136553 -7.43096e-17)
(0.847093 0.0351372 -6.31388e-17)
(0.827005 0.00352422 -8.44247e-19)
(0.78188 0.137306 3.32796e-18)
(0.830483 0.0658039 -2.26194e-17)
(0.818598 -0.0241039 8.84617e-17)
(0.857741 0.0498052 -8.92448e-17)
(0.733416 -0.0702535 8.10374e-17)
(0.826345 0.0705771 -4.23533e-17)
(0.780663 0.038186 2.51807e-17)
(0.76902 0.0123834 1.12854e-16)
(0.796015 0.0392403 3.05358e-17)
(0.771482 0.00699144 -1.65454e-17)
(0.834807 0.0283239 -8.02637e-17)
(0.76533 0.00267319 -5.91914e-17)
(0.809283 0.0294852 -6.22329e-17)
(0.784286 0.0142116 2.47331e-17)
(0.836867 0.0218314 3.71519e-17)
(0.834458 -0.00508244 -3.87796e-18)
(0.82962 0.165176 1.61354e-18)
(0.808751 -0.00732273 6.65604e-17)
(0.834872 0.0658434 -9.63871e-18)
(0.77273 0.0214137 -4.84124e-17)
(0.877931 0.109345 -2.03791e-16)
(0.797631 0.0181802 7.15798e-17)
(0.802836 0.0356632 1.34971e-16)
(0.813962 0.0276517 1.2399e-16)
(0.774213 0.0263473 -2.25164e-17)
(0.806766 0.0161441 -3.72463e-19)
(0.811933 0.0220619 -6.51261e-17)
(0.804466 0.0205261 7.04754e-17)
(0.798869 0.0234985 2.26684e-16)
(0.801051 0.0222977 -2.0564e-17)
(0.799946 0.0105175 6.77694e-18)
(0.836744 0.0279704 -1.10829e-16)
(0.84618 -0.0095256 -6.34879e-18)
(0.868894 0.188035 3.54519e-18)
(0.838901 0.0733756 -7.37903e-17)
(0.821126 -0.0272545 7.89505e-17)
(0.861969 0.0381033 1.34691e-16)
(0.751599 -0.0417191 1.56842e-16)
(0.822755 0.0552044 7.48156e-18)
(0.786434 0.0353141 -1.21902e-16)
(0.765807 -0.00345045 -2.83099e-16)
(0.767452 0.0424076 -1.04223e-16)
(0.768745 0.00961739 4.2987e-17)
(0.803113 0.0393196 2.0166e-17)
(0.775003 0.00356172 1.28491e-17)
(0.832337 0.028123 -4.8427e-17)
(0.776862 -0.00383065 -5.55599e-17)
(0.81413 0.0109902 -9.94606e-17)
(0.801 0.00671383 7.60148e-18)
(0.835642 0.0169335 4.66919e-17)
(0.854675 -0.0135653 -5.89886e-18)
(0.897551 0.204213 2.33144e-18)
(0.819947 -0.000364155 3.21075e-17)
(0.844692 0.0808461 -1.1587e-16)
(0.785233 -0.0335573 9.04377e-17)
(0.873029 0.0846336 2.06698e-16)
(0.824358 0.0189443 2.05205e-16)
(0.815149 0.0253386 -4.44924e-17)
(0.834223 0.0248488 2.78977e-17)
(0.7806 0.0330002 7.49764e-17)
(0.801961 0.01556 1.66268e-16)
(0.776466 0.0205652 -8.49774e-18)
(0.802273 0.000575157 -1.91613e-17)
(0.814347 0.01358 -9.2853e-17)
(0.80477 0.000162513 6.25367e-17)
(0.798477 0.00438395 6.56955e-17)
(0.80485 0.011658 3.76946e-18)
(0.806092 0.00266924 1.49495e-17)
(0.844317 0.0266133 -1.05691e-16)
(0.863172 -0.0143896 -6.69834e-18)
(0.919872 0.216982 3.31901e-18)
(0.835978 0.0729558 -5.00004e-17)
(0.833131 -0.0128531 2.7999e-17)
(0.871788 0.129748 -1.02075e-16)
(0.76174 -0.00168886 -3.21539e-17)
(0.824689 0.0473004 -5.40326e-17)
(0.804001 0.0375397 -7.51107e-17)
(0.798296 -0.00154033 5.48908e-17)
(0.784426 0.0370756 -5.22875e-17)
(0.781954 -0.00385823 -2.64108e-16)
(0.776034 0.0354822 -1.95295e-16)
(0.775162 0.00616725 5.0873e-17)
(0.795089 0.0316448 4.99718e-17)
(0.778167 -0.0102441 1.9956e-17)
(0.823594 0.0232429 -5.84049e-17)
(0.797795 0.00114432 6.94273e-17)
(0.809272 0.00698214 -8.41502e-17)
(0.813609 0.0022834 1.24279e-17)
(0.846973 0.019631 2.85572e-17)
(0.870539 -0.014747 -6.38199e-18)
(0.941996 0.225474 2.0206e-18)
(0.822108 0.0151909 -3.60726e-17)
(0.847943 0.084028 -8.98998e-18)
(0.795104 -0.0281362 5.78245e-17)
(0.866479 0.0580995 -7.82758e-17)
(0.85317 0.0193553 -7.79157e-17)
(0.812152 0.012568 1.02797e-16)
(0.825021 0.0188958 2.97083e-16)
(0.80895 0.0227004 1.61404e-16)
(0.822837 0.0169161 6.56232e-17)
(0.788494 0.0316716 7.33365e-17)
(0.800057 0.0134526 1.4478e-16)
(0.772959 0.0205915 -5.54457e-18)
(0.795752 -0.0017826 -3.02266e-17)
(0.819433 0.0306009 -1.28227e-16)
(0.811925 0.00384521 6.77796e-17)
(0.805104 0.000281262 7.56392e-17)
(0.802798 0.00463883 1.24828e-17)
(0.81931 -1.69479e-05 1.58447e-17)
(0.853742 0.0235344 -4.76808e-17)
(0.878232 -0.015713 -6.39423e-18)
(0.954953 0.229603 7.25432e-18)
(0.836118 0.0466091 3.26646e-16)
(0.831078 0.00408928 1.26903e-17)
(0.870285 0.113338 -1.10071e-16)
(0.782378 0.00116408 -2.16096e-17)
(0.826543 0.0360518 -8.58512e-17)
(0.827069 0.0401168 -2.11459e-17)
(0.812331 0.0109 -5.19071e-17)
(0.810055 0.0229731 -1.43905e-16)
(0.798666 0.00440425 5.96293e-17)
(0.795964 0.0307211 -3.98353e-18)
(0.791236 -0.000504083 -2.72321e-16)
(0.777406 0.0291058 -1.62469e-16)
(0.775951 0.00216943 3.14572e-17)
(0.795971 0.0366583 6.87185e-17)
(0.780578 -0.0123115 -6.3036e-18)
(0.819302 0.0129132 -5.71378e-17)
(0.811414 -0.00208279 7.71053e-17)
(0.814762 0.00714911 -7.78917e-17)
(0.824727 8.71761e-05 1.41302e-17)
(0.856526 0.0231617 -2.91034e-17)
(0.885305 -0.0147938 -6.38945e-18)
(0.972723 0.235305 5.34172e-18)
(0.815528 -0.00228905 -4.24702e-16)
(0.856491 0.0752538 1.76113e-16)
(0.808516 -0.0500371 -9.39745e-17)
(0.865311 0.0501232 -2.28502e-16)
(0.870821 0.0281532 1.79523e-17)
(0.82163 0.00692846 -6.10094e-17)
(0.842059 0.0109509 -1.40627e-16)
(0.81891 0.0177141 -1.74826e-16)
(0.8192 0.0169358 1.91541e-16)
(0.805926 0.0236144 1.87512e-16)
(0.821542 0.018621 8.03548e-17)
(0.792832 0.0304428 6.74395e-17)
(0.794997 0.00697557 1.69353e-16)
(0.784744 0.0172607 3.49333e-17)
(0.782846 -0.0135736 -2.47139e-17)
(0.812382 0.00683656 -5.21757e-17)
(0.811271 0.00724285 4.47195e-17)
(0.81683 -0.000699204 7.99541e-17)
(0.81091 0.00435986 -2.19704e-17)
(0.829269 -0.000402083 1.46288e-17)
(0.862999 0.0244409 -3.27584e-17)
(0.891341 -0.0146311 -5.22641e-18)
(0.968982 0.229955 5.34543e-18)
(0.838799 0.0489212 5.86918e-17)
(0.824631 0.00105446 -4.70292e-16)
(0.865897 0.135542 1.79318e-16)
(0.806308 0.0153805 1.09806e-16)
(0.831493 0.0268818 4.0469e-17)
(0.840381 0.0363217 9.01718e-17)
(0.821537 0.0209644 -1.00412e-16)
(0.811865 0.0261632 -3.43936e-17)
(0.815285 0.00395016 -3.04166e-17)
(0.820061 0.0237845 -1.27631e-16)
(0.799529 0.000257891 3.0318e-17)
(0.800961 0.0264411 3.8427e-17)
(0.78934 -0.00305044 -2.32671e-16)
(0.778923 0.0284114 -2.43767e-16)
(0.778259 0.00114944 8.63244e-18)
(0.800004 0.0380671 6.6267e-17)
(0.803002 0.000701174 -4.29982e-17)
(0.822746 0.0150011 -5.70983e-17)
(0.820232 -0.00113881 8.42823e-17)
(0.820165 0.00694602 -4.76682e-17)
(0.834429 -5.11245e-07 1.52967e-17)
(0.868547 0.0255564 -3.47447e-17)
(0.896382 -0.0155143 -5.37094e-18)
(0.980198 0.235796 4.24595e-18)
(0.820801 -0.0245396 7.2505e-17)
(0.861881 0.0730411 1.52696e-16)
(0.831426 -0.0601729 -3.2409e-16)
(0.859893 0.0387411 2.0877e-16)
(0.884214 0.0347724 1.24786e-16)
(0.833969 0.0117153 -7.76851e-17)
(0.853916 0.0123939 -7.90715e-17)
(0.825747 0.00917862 -1.72467e-17)
(0.838624 0.0120436 -1.13514e-16)
(0.819683 0.0186823 -2.13385e-16)
(0.824205 0.00727384 9.47549e-17)
(0.812079 0.0199941 1.75691e-16)
(0.816434 0.0139342 5.16838e-17)
(0.793745 0.0323763 1.10697e-16)
(0.789029 0.00570865 1.8069e-16)
(0.797852 0.0195486 7.16066e-17)
(0.781552 -0.0152904 -1.41975e-17)
(0.821082 0.00232229 -4.62453e-17)
(0.814159 0.000746558 6.3815e-17)
(0.825862 0.000297053 9.96284e-17)
(0.819566 0.00768151 -4.3198e-17)
(0.839464 0.000813891 1.49515e-17)
(0.873955 0.0261803 -4.00666e-17)
(0.906643 -0.0196047 -5.58386e-18)
(1.00466 0.232812 3.68768e-18)
(0.839247 0.068525 1.55505e-16)
(0.815906 -0.0109705 7.92537e-17)
(0.873639 0.151135 2.25126e-16)
(0.824358 0.0341175 -4.22663e-16)
(0.833388 0.0296872 -2.23643e-16)
(0.854744 0.0382199 -1.42266e-16)
(0.84056 0.0308918 -1.37392e-16)
(0.838917 0.0307897 9.89533e-17)
(0.827789 0.0151749 -5.03518e-17)
(0.820914 0.0245209 -1.81551e-17)
(0.817986 0.00432392 -5.64084e-17)
(0.81859 0.0249452 -1.10851e-16)
(0.798278 0.00250035 1.23134e-16)
(0.808161 0.0298895 1.32035e-16)
(0.797436 -0.00216992 -2.47976e-16)
(0.78866 0.0275486 -2.13962e-16)
(0.778448 -0.00166633 -2.60734e-17)
(0.798046 0.0276231 7.71298e-17)
(0.80496 -0.0024411 -3.51186e-17)
(0.82718 0.0227375 -8.16237e-17)
(0.827963 0.00273756 9.13603e-17)
(0.825551 0.00938355 -4.57899e-17)
(0.845305 0.00179539 1.22093e-17)
(0.880984 0.0266857 -3.48838e-17)
(0.919744 -0.0273036 -5.68647e-18)
(1.03445 0.220124 3.81718e-18)
(0.818068 -0.00880658 7.12777e-17)
(0.85908 0.0847467 1.6043e-16)
(0.833769 -0.0348257 1.23402e-16)
(0.849759 0.0248345 3.94384e-16)
(0.881426 0.0343348 -5.22105e-17)
(0.834501 0.0203895 7.5575e-17)
(0.851591 0.0147724 2.92603e-16)
(0.834769 0.00409208 3.00659e-16)
(0.851969 0.000286426 3.15918e-17)
(0.828179 0.0069778 -1.38671e-18)
(0.843501 0.00555818 -1.01543e-16)
(0.822485 0.016315 -2.41789e-16)
(0.823171 0.00567467 7.9052e-17)
(0.812474 0.0244885 2.10878e-16)
(0.821748 0.0127555 8.58139e-17)
(0.801692 0.0214642 5.54504e-17)
(0.794682 0.0048862 1.8445e-16)
(0.801838 0.0148523 5.19453e-17)
(0.790802 -0.00397809 5.87231e-18)
(0.821154 0.00498611 -4.97773e-17)
(0.816624 -0.00296975 6.28396e-17)
(0.831309 0.00333337 9.6056e-17)
(0.829815 0.012081 -4.43871e-17)
(0.851591 0.00240517 9.01455e-18)
(0.89026 0.0286085 -3.64954e-17)
(0.881982 -0.0254046 -5.45783e-18)
(1.00778 0.197361 4.61835e-18)
(0.828377 0.0672863 -5.00317e-16)
(0.809059 -0.00826977 -5.71052e-17)
(0.857265 0.139658 6.70677e-17)
(0.842435 0.0448456 1.12883e-17)
(0.825858 0.0348303 3.70926e-16)
(0.847757 0.0363616 3.22964e-16)
(0.834669 0.0309126 3.12487e-16)
(0.835915 0.0311105 -1.04874e-18)
(0.842844 0.0179765 -1.76462e-16)
(0.838653 0.0279494 6.31083e-17)
(0.827195 0.0158574 -5.4674e-17)
(0.830424 0.0233191 -2.44788e-17)
(0.823804 0.00203816 1.12275e-18)
(0.821036 0.0237188 -1.33568e-16)
(0.802841 -0.00259887 -4.65078e-19)
(0.810829 0.0252037 1.10804e-16)
(0.805903 0.00303263 -1.71919e-16)
(0.791157 0.0247106 -2.34399e-16)
(0.783969 -0.0033327 -6.68052e-17)
(0.795018 0.0213215 9.7835e-17)
(0.813465 -0.00932226 -2.09701e-17)
(0.829923 0.0216991 -6.76918e-17)
(0.83495 0.00417129 9.00346e-17)
(0.834654 0.0143495 -4.63395e-17)
(0.856383 0.00349626 5.51817e-18)
(0.896992 0.0300485 -3.55985e-17)
(0.88521 -0.0127379 -4.22018e-18)
(0.999448 0.218883 6.13714e-18)
(0.811228 0.0191656 5.38368e-16)
(0.845728 0.0859484 -3.34813e-16)
(0.828541 -0.0111159 2.37697e-17)
(0.837429 0.0129106 1.28204e-16)
(0.86736 0.0281974 -7.54533e-17)
(0.830149 0.0217162 -1.48465e-16)
(0.858256 0.020689 -2.89511e-16)
(0.828279 0.00582808 -4.67356e-16)
(0.852359 0.00429927 -2.5728e-17)
(0.823656 0.0067155 2.7147e-16)
(0.848373 0.00910339 4.90582e-17)
(0.821051 0.00998045 2.85952e-17)
(0.841947 0.00679214 -5.02069e-17)
(0.82523 0.013766 -1.75051e-16)
(0.826852 0.00214123 1.04592e-16)
(0.81717 0.0179841 1.73504e-16)
(0.819047 0.0109218 5.97718e-17)
(0.81108 0.0172108 5.06191e-17)
(0.792151 0.00164685 1.79843e-16)
(0.804388 0.0113835 3.97951e-17)
(0.79517 -0.00110039 5.80884e-19)
(0.823438 0.0144315 -2.69472e-17)
(0.821777 0.00546107 3.66941e-18)
(0.837482 0.00581407 8.99285e-17)
(0.83904 0.0172584 -4.5372e-17)
(0.859115 0.00550273 4.5381e-18)
(0.900673 0.0235421 -3.43154e-17)
(0.893772 -0.0123096 -4.71806e-18)
(0.985396 0.20068 7.02507e-18)
(0.825081 0.0538681 -1.71499e-16)
(0.795956 -0.00515718 6.857e-16)
(0.839861 0.126385 -2.89586e-16)
(0.84284 0.0556697 -2.22108e-16)
(0.8121 0.0406063 -2.59453e-17)
(0.840522 0.0345793 9.20605e-17)
(0.841828 0.0202499 8.0765e-17)
(0.842348 0.0269757 1.43743e-16)
(0.83318 0.0233102 3.58396e-16)
(0.834076 0.0281656 1.31315e-16)
(0.843976 0.0173307 -1.68348e-16)
(0.837307 0.0261372 2.82555e-17)
(0.83264 0.0168073 -4.66363e-17)
(0.828538 0.0224239 -1.53962e-17)
(0.828916 0.000124302 -2.07255e-17)
(0.824184 0.026458 -1.34878e-16)
(0.809535 0.00931114 8.34037e-17)
(0.81308 0.0273889 7.58208e-17)
(0.807455 0.00281792 -1.36225e-16)
(0.799815 0.0229369 -2.81171e-16)
(0.792604 -0.00284713 -6.09181e-17)
(0.79517 0.0187819 5.40205e-17)
(0.813989 -0.0141751 -1.04546e-17)
(0.831443 0.0163462 -4.85459e-17)
(0.840928 0.00740834 8.48054e-17)
(0.842737 0.0209474 -5.34215e-17)
(0.861161 0.00914889 -3.05798e-18)
(0.902005 0.0288439 -3.43518e-17)
(0.899081 -0.0121034 -3.66429e-18)
(0.984615 0.217873 1.04625e-17)
(0.807441 0.0259634 -1.06762e-16)
(0.830489 0.0792604 -4.28229e-16)
(0.817391 0.00209418 3.98115e-16)
(0.819162 0.00312007 -3.4692e-16)
(0.850032 0.024854 -6.38775e-16)
(0.83176 0.0224302 -6.58242e-16)
(0.849861 0.0259559 -5.9438e-16)
(0.845184 0.00612961 -2.91068e-16)
(0.842847 0.0107903 -2.4439e-16)
(0.816654 0.00779363 -4.53735e-16)
(0.856221 -0.000327354 -7.25905e-17)
(0.826651 0.00404841 3.22698e-16)
(0.849061 0.00881539 8.98632e-17)
(0.826354 0.00929669 5.40712e-17)
(0.843829 0.00660823 -3.66976e-17)
(0.827311 0.0141652 -2.36659e-16)
(0.828598 0.002821 5.7139e-17)
(0.819063 0.0124605 1.04346e-16)
(0.821127 0.0111073 7.26274e-17)
(0.810482 0.0172558 9.81785e-18)
(0.792242 0.00383254 1.98962e-16)
(0.804821 0.01132 7.97368e-17)
(0.796131 0.00482284 1.23506e-17)
(0.824431 0.0151851 -2.29625e-17)
(0.826705 0.0122541 -3.47922e-17)
(0.843512 0.00916158 9.15199e-17)
(0.845962 0.0242994 -5.4022e-17)
(0.862739 0.0148845 -1.59005e-17)
(0.905328 0.025177 -3.60508e-17)
(0.902168 -0.0119039 -1.89354e-18)
(0.975201 0.196431 9.45217e-18)
(0.832305 0.0383954 3.42219e-16)
(0.778282 -0.0153981 -4.6042e-17)
(0.812395 0.117112 -2.23908e-16)
(0.833745 0.0631728 6.72102e-16)
(0.805022 0.0385391 4.96271e-16)
(0.832462 0.0331619 3.59309e-16)
(0.829834 0.0160105 3.05594e-16)
(0.847852 0.0129971 4.88973e-16)
(0.837284 0.0121917 2.94906e-16)
(0.834033 0.022863 2.00453e-16)
(0.836626 0.0179154 3.97411e-16)
(0.83956 0.0285448 1.21563e-16)
(0.832765 0.0184316 -1.57084e-16)
(0.837575 0.0323279 5.10898e-17)
(0.838795 0.0163494 -3.08084e-17)
(0.830069 0.0213601 -3.40088e-17)
(0.832663 0.000993433 1.09742e-17)
(0.826824 0.0217724 -1.32482e-16)
(0.817141 0.0104078 9.81923e-17)
(0.812659 0.0276397 6.36532e-17)
(0.810572 5.27913e-05 -1.28781e-16)
(0.805596 0.0197817 -2.53415e-16)
(0.796692 -0.00349895 -6.25619e-17)
(0.798237 0.0201788 6.56462e-17)
(0.814075 -0.0119864 2.14021e-18)
(0.833103 0.0158835 -4.16764e-17)
(0.846062 0.0102263 1.00831e-16)
(0.848855 0.0259003 -5.61826e-17)
(0.865568 0.0163323 -8.10749e-18)
(0.905864 0.0276086 -4.11794e-17)
(0.904131 -0.0121618 -3.56019e-18)
(0.976426 0.21318 7.94217e-18)
(0.813163 0.0151624 -5.43254e-16)
(0.832896 0.0903778 4.38983e-16)
(0.805066 0.0191065 -1.54739e-16)
(0.80663 0.000216424 -4.97882e-16)
(0.838265 0.0254368 5.2411e-16)
(0.817694 0.0225987 4.71969e-16)
(0.841206 0.0381285 4.42778e-16)
(0.845243 0.0137025 3.82725e-18)
(0.84766 0.00842327 -4.62085e-16)
(0.823652 0.012068 -3.62011e-16)
(0.840487 0.00575536 -2.69991e-16)
(0.820976 0.0101804 -5.23351e-16)
(0.857861 -0.00232241 -1.48226e-16)
(0.834469 0.0128173 1.26752e-17)
(0.847935 0.00806725 5.63723e-17)
(0.827883 0.00954444 4.89038e-17)
(0.847533 0.0044733 -3.29632e-17)
(0.824877 0.0135052 -2.24113e-16)
(0.826591 0.00583877 5.44101e-17)
(0.823622 0.0125373 1.05e-16)
(0.817554 0.0077818 6.38769e-17)
(0.815977 0.0188455 2.73385e-17)
(0.793602 0.00273442 1.7613e-16)
(0.805403 0.0111802 5.24769e-17)
(0.796287 -0.000425377 2.35654e-17)
(0.824146 0.0105967 -1.07476e-17)
(0.831691 0.014693 -4.05924e-17)
(0.848269 0.0107361 1.10881e-16)
(0.850742 0.0263011 -6.73508e-17)
(0.866856 0.016914 -3.4589e-18)
(0.90826 0.0226314 -3.88151e-17)
(0.905246 -0.0120252 -3.84934e-18)
(0.968934 0.194718 3.02387e-18)
(0.829468 0.0305109 1.29304e-16)
(0.77557 -0.0059041 -6.45767e-16)
(0.796945 0.106952 4.93513e-16)
(0.834612 0.0565293 1.56965e-16)
(0.806527 0.0297721 -9.56784e-16)
(0.831242 0.0310658 -8.15858e-16)
(0.827177 0.0202002 -6.4263e-16)
(0.841782 0.0150909 -5.30085e-16)
(0.844267 -0.0112357 -8.25449e-17)
(0.837904 0.0186154 4.91472e-16)
(0.825343 0.00716934 3.75797e-16)
(0.836499 0.0335172 1.74426e-16)
(0.837963 0.0156501 4.10083e-16)
(0.839492 0.0261492 1.73569e-16)
(0.843223 0.0152249 3.46797e-17)
(0.835063 0.0302652 2.22509e-17)
(0.842858 0.014382 -2.79634e-17)
(0.834253 0.0214613 -6.9202e-17)
(0.835695 0.00013818 -3.44654e-17)
(0.822805 0.0210784 -1.7111e-16)
(0.821362 0.0067241 8.83209e-17)
(0.816791 0.026566 9.42584e-17)
(0.815866 0.0010524 -8.62959e-17)
(0.807387 0.0204237 -2.59273e-16)
(0.802482 -0.00816833 -8.62213e-17)
(0.802119 0.0178379 6.9142e-17)
(0.81865 -0.0072208 9.43123e-19)
(0.834497 0.0164457 -4.64973e-17)
(0.850503 0.0106063 1.18252e-16)
(0.852452 0.0256107 -6.91473e-17)
(0.87055 0.0165686 -1.28572e-18)
(0.908349 0.0259467 -3.47236e-17)
(0.90565 -0.0109013 -4.90168e-18)
(0.971291 0.214151 1.07977e-17)
(0.806774 -0.00692412 -6.21622e-18)
(0.832346 0.0853053 1.44899e-16)
(0.798931 0.0395291 -4.07821e-16)
(0.79341 -0.00390322 3.74428e-16)
(0.830895 0.0284366 7.94448e-16)
(0.806759 0.0222079 5.037e-16)
(0.835285 0.0410623 4.08379e-16)
(0.840141 0.019669 5.91005e-16)
(0.84489 0.0156186 7.85633e-16)
(0.831007 0.015993 2.17192e-16)
(0.836597 0.00921621 -3.85624e-16)
(0.830887 0.018366 -3.86358e-16)
(0.839967 0.000992465 -2.71646e-16)
(0.826193 0.00832249 -4.80357e-16)
(0.84982 -0.00191974 -1.70516e-16)
(0.835734 0.0101853 1.91925e-16)
(0.84813 0.00695179 1.01756e-16)
(0.829593 0.00946814 2.84507e-17)
(0.849862 0.00199087 -2.84238e-17)
(0.827665 0.0137804 -2.12227e-16)
(0.827263 0.00685375 4.0001e-17)
(0.823687 0.0152312 1.24154e-16)
(0.816288 0.0071667 7.48725e-17)
(0.816055 0.01572 3.46589e-18)
(0.798506 0.00219026 1.22431e-16)
(0.806485 0.0128877 9.24286e-17)
(0.793327 0.00208102 5.00866e-17)
(0.824857 0.00403238 -1.03551e-17)
(0.834365 0.0137258 -4.80235e-17)
(0.852379 0.0103356 1.22992e-16)
(0.854133 0.0245401 -6.38822e-17)
(0.869305 0.0173964 -4.10848e-18)
(0.910725 0.0240076 -4.83736e-17)
(0.905567 -0.00877704 -5.37105e-18)
(0.964491 0.196967 6.52913e-18)
(0.829488 0.0438755 1.42569e-16)
(0.767675 0.00439175 6.88332e-18)
(0.79626 0.0945876 -4.2369e-17)
(0.832956 0.0507312 -7.43205e-16)
(0.814562 0.0275583 -1.59738e-16)
(0.829884 0.0351707 2.73538e-16)
(0.82528 0.0284911 1.98918e-16)
(0.82693 0.0184269 1.01342e-17)
(0.831704 -0.00452455 -4.25188e-16)
(0.8378 0.0140584 -5.91312e-16)
(0.838986 -0.0091506 -1.95095e-16)
(0.832333 0.0209117 3.71838e-16)
(0.829222 0.00710953 3.41862e-16)
(0.832306 0.0344595 2.1663e-16)
(0.837528 0.01568 4.31551e-16)
(0.837587 0.0293189 2.18904e-16)
(0.842767 0.0182755 -1.29334e-16)
(0.838049 0.0309651 1.70692e-18)
(0.846003 0.0135738 -4.48477e-17)
(0.838334 0.0203152 -7.17807e-17)
(0.838528 -0.000388725 -3.52148e-18)
(0.823327 0.0206675 -1.73633e-16)
(0.821708 0.00378507 3.88249e-17)
(0.822792 0.0253129 7.84273e-17)
(0.818069 0.00380524 -1.18963e-16)
(0.811725 0.0219488 -2.42746e-16)
(0.806596 0.00137918 2.54231e-18)
(0.804046 0.0190117 6.04704e-17)
(0.818978 -0.00308797 -2.00249e-17)
(0.835876 0.0160221 -6.27191e-17)
(0.854056 0.00951294 1.26687e-16)
(0.855849 0.0243269 -5.10686e-17)
(0.873632 0.016304 -7.0914e-18)
(0.909679 0.0263377 -2.5893e-17)
(0.904989 -0.00622471 -5.64763e-18)
(0.967895 0.214942 1.968e-17)
(0.805957 -0.0122402 9.41906e-17)
(0.824631 0.0787269 3.17141e-16)
(0.794662 0.0444476 4.17508e-17)
(0.788263 -0.0072784 2.78091e-16)
(0.831264 0.0334875 -6.24375e-16)
(0.799245 0.024214 -5.30834e-16)
(0.829902 0.0399147 -3.30609e-16)
(0.820388 0.0190259 -2.43108e-16)
(0.84491 0.0195063 -1.08393e-16)
(0.831923 0.0215318 3.37488e-16)
(0.83942 0.00888771 7.07407e-16)
(0.840459 0.0160795 3.76431e-16)
(0.839932 0.00994037 -4.0678e-16)
(0.831514 0.018138 -3.81004e-16)
(0.831732 0.00139331 -3.20072e-16)
(0.832724 0.0109016 -5.31457e-16)
(0.839068 -0.00344092 -2.42786e-16)
(0.833042 0.00971646 2.35626e-16)
(0.84601 0.0030956 1.53677e-16)
(0.836567 0.0108066 2.88881e-17)
(0.848557 0.000704573 -3.19946e-17)
(0.833676 0.0117512 -2.75257e-16)
(0.829515 0.00535091 5.25056e-17)
(0.824294 0.0164106 1.11577e-16)
(0.818998 0.0061288 5.00779e-17)
(0.817223 0.0106214 -3.01463e-17)
(0.797696 -0.00100913 1.51309e-16)
(0.81906 0.000779485 6.72062e-18)
(0.794626 -0.00621288 2.40033e-17)
(0.823651 0.00133658 -2.58825e-17)
(0.83698 0.0132141 -6.10849e-17)
(0.855562 0.00842899 1.31907e-16)
(0.85678 0.021705 -5.48672e-17)
(0.868311 0.0140867 -1.75977e-17)
(0.910142 0.0251605 -4.01433e-17)
(0.904243 -0.00436637 -5.57383e-18)
(0.960903 0.194715 9.02238e-18)
(0.827246 0.047458 8.91968e-17)
(0.773421 0.0174051 1.60115e-17)
(0.797709 0.0887231 1.49129e-16)
(0.826847 0.0509833 -5.39772e-17)
(0.808795 0.0340556 6.51153e-16)
(0.818409 0.0468694 4.17737e-16)
(0.821137 0.0366292 1.56909e-17)
(0.823073 0.0216097 2.25916e-17)
(0.83365 0.00690353 1.88627e-16)
(0.825378 0.0131072 1.52087e-16)
(0.840407 -0.00816523 -2.80696e-16)
(0.82829 0.00868775 -7.12881e-16)
(0.837451 -0.00954802 -3.34771e-16)
(0.825163 0.024066 4.06081e-16)
(0.835419 0.00799266 3.82778e-16)
(0.83334 0.0312186 1.28952e-16)
(0.835229 0.0187184 3.95219e-16)
(0.840446 0.0281789 2.1883e-16)
(0.841778 0.0200275 -1.15034e-16)
(0.836727 0.0309299 -4.17846e-17)
(0.848764 0.0151406 -5.51186e-17)
(0.837281 0.0199 -9.0178e-17)
(0.841371 0.00058336 1.92834e-17)
(0.825769 0.0182358 -1.83816e-16)
(0.823529 0.002214 2.11123e-17)
(0.827768 0.0235423 9.81849e-17)
(0.821212 0.00464682 -7.38265e-17)
(0.810255 0.0231274 -2.85663e-16)
(0.791099 0.00065014 -2.77335e-18)
(0.806565 0.0193824 3.32558e-17)
(0.822723 -0.00199402 -2.12636e-17)
(0.837826 0.0152906 -5.60166e-17)
(0.857403 0.00703149 1.31495e-16)
(0.858164 0.0218689 -5.57819e-17)
(0.872498 0.0150607 -1.18413e-17)
(0.908366 0.0267666 -3.18139e-17)
(0.903104 -0.00346736 -6.69521e-18)
(0.964802 0.212083 1.26359e-17)
(0.811439 0.000643423 -2.61063e-16)
(0.834641 0.0700884 -1.09757e-16)
(0.812127 0.0701149 -8.48177e-17)
(0.794564 -0.00611514 1.44114e-16)
(0.834143 0.0332058 1.38428e-17)
(0.797427 0.0295636 1.98589e-16)
(0.838904 0.0365683 1.65944e-16)
(0.830245 0.0136583 7.81105e-17)
(0.839479 0.0132934 -7.86841e-17)
(0.82957 0.0189034 -2.51546e-16)
(0.839336 0.00967337 -1.76314e-16)
(0.835657 0.0233364 1.61364e-16)
(0.830269 0.00723767 6.8642e-16)
(0.836008 0.0190375 2.18353e-16)
(0.835596 0.0122183 -2.76143e-16)
(0.826382 0.0197416 -3.20532e-16)
(0.830242 0.00506258 -2.476e-16)
(0.835382 0.0111942 -5.28985e-16)
(0.83431 -0.00373558 -3.59169e-16)
(0.833528 0.0140548 2.186e-16)
(0.843929 0.00270681 1.82073e-16)
(0.840485 0.0108323 2.39977e-17)
(0.84684 -0.00045305 -4.30602e-18)
(0.836662 0.0108422 -2.48493e-16)
(0.832475 0.00704456 3.06718e-17)
(0.825401 0.0168331 1.54034e-16)
(0.822268 0.00624899 9.34197e-17)
(0.822378 0.00926033 5.65698e-18)
(0.798992 0.0014784 1.87066e-16)
(0.818578 0.000149677 -3.23671e-18)
(0.796598 -0.00229358 1.69707e-17)
(0.822285 0.000438392 -2.58982e-17)
(0.839602 0.0133612 -5.27874e-17)
(0.860185 0.00621684 1.21235e-16)
(0.859527 0.0193294 -5.73402e-17)
(0.867459 0.0131619 -1.09817e-18)
(0.907737 0.0255795 -3.84131e-17)
(0.901985 -0.00278225 -7.37991e-18)
(0.958777 0.192737 9.87066e-18)
(0.834088 0.0422623 -2.72551e-17)
(0.787545 0.0266316 -2.02717e-16)
(0.807762 0.0796576 1.32438e-16)
(0.842247 0.0521001 2.08415e-16)
(0.823554 0.0390484 2.08509e-16)
(0.829224 0.0534438 -4.00904e-16)
(0.835687 0.0403621 -4.39741e-16)
(0.829888 0.0262321 -1.7197e-16)
(0.839013 0.0198475 -2.53957e-16)
(0.825729 0.0155907 -1.08678e-16)
(0.835409 0.00824264 1.27329e-16)
(0.822862 0.0117739 1.26298e-16)
(0.833974 -0.00974434 -2.13542e-16)
(0.833804 0.00807805 -6.68862e-16)
(0.840926 0.00813955 1.20003e-16)
(0.828922 0.0209254 2.11545e-16)
(0.834714 0.0105324 2.82802e-16)
(0.837416 0.0292973 1.96991e-16)
(0.835804 0.0197565 4.90983e-16)
(0.840919 0.0285464 1.96547e-16)
(0.833711 0.0197385 -1.78455e-16)
(0.835134 0.0314201 -2.137e-17)
(0.84726 0.0141014 -3.43529e-17)
(0.837934 0.0197922 -8.94932e-17)
(0.840135 0.00141364 -3.01138e-17)
(0.828838 0.0193599 -2.02185e-16)
(0.82224 0.00245909 -1.06373e-17)
(0.827655 0.0231334 1.06983e-16)
(0.817845 0.00339543 -4.02033e-17)
(0.81044 0.0174876 -2.28953e-16)
(0.792485 -0.000206296 1.17219e-18)
(0.807477 0.0160962 2.86174e-17)
(0.824475 -0.00222933 -2.24262e-17)
(0.839995 0.014932 -5.34575e-17)
(0.858779 0.00727253 8.43604e-17)
(0.860989 0.0185932 -4.64396e-17)
(0.870888 0.0140443 1.51622e-17)
(0.905867 0.0267945 -2.71167e-17)
(0.900864 -0.00171496 -1.25219e-17)
(0.964421 0.21187 6.54056e-18)
(0.821961 0.0165214 -2.12121e-16)
(0.842281 0.0601352 -1.1886e-16)
(0.833502 0.0527589 -1.19308e-16)
(0.804353 -0.00412207 2.64236e-17)
(0.847357 0.0307916 -1.70611e-16)
(0.819639 0.026678 -4.70338e-17)
(0.853715 0.0287363 -4.54788e-17)
(0.838377 0.00862465 -4.36193e-17)
(0.846824 0.022567 -2.85389e-17)
(0.849702 0.0138332 1.04203e-16)
(0.840636 0.0128981 -1.03774e-17)
(0.830532 0.0180898 -2.57762e-16)
(0.836367 0.00298326 -2.77932e-16)
(0.835879 0.0199135 2.32148e-16)
(0.830631 0.00384089 7.64824e-16)
(0.84637 0.0157087 4.3239e-16)
(0.831688 0.0130843 -2.31413e-16)
(0.824157 0.024074 -3.73163e-16)
(0.831098 0.0116321 -2.2511e-16)
(0.831065 0.011788 -4.2331e-16)
(0.834358 -0.0034996 -3.99245e-16)
(0.834275 0.0139228 1.97676e-16)
(0.841904 -0.00105377 1.36103e-16)
(0.839149 0.0115554 5.01866e-17)
(0.848929 -0.000416304 -2.58205e-17)
(0.837459 0.0118166 -1.99786e-16)
(0.831645 0.00387011 4.38604e-17)
(0.829057 0.0167501 1.68378e-16)
(0.819848 0.00619548 9.59544e-17)
(0.823892 0.00782702 -3.58439e-17)
(0.80187 0.00688681 1.18724e-16)
(0.81273 -0.000204443 1.50781e-17)
(0.796829 0.000519596 4.04555e-17)
(0.827474 -0.00266489 -2.22267e-17)
(0.841718 0.0147229 -5.27275e-17)
(0.863611 0.0073087 1.02167e-16)
(0.862511 0.0173849 -5.07925e-17)
(0.868512 0.0143501 -9.85573e-18)
(0.904711 0.0265104 -4.10805e-17)
(0.900024 -0.000448161 -6.47724e-18)
(0.958841 0.19174 1.35926e-17)
(0.839197 0.0285282 1.53561e-16)
(0.804433 0.0311517 -3.02458e-16)
(0.823753 0.0776276 -2.13112e-16)
(0.861926 0.0618805 -3.85726e-16)