/*--------------------------------*- C++ -*----------------------------------*\
| =========                 |                                                 |
| \\      /  F ield         | OpenFOAM: The Open Source CFD Toolbox           |
|  \\    /   O peration     | Version:  2206                                  |
|   \\  /    A nd           | Website:  www.openfoam.com                      |
|    \\/     M anipulation  |                                                 |
\*---------------------------------------------------------------------------*/
FoamFile
{
    version     2.0;
    format      ascii;
    arch        "LSB;label=32;scalar=64";
    class       volVectorField;
    location    "160";
    object      UMean;
}
// * * * * * * * * * * * * * * * * * * * * * * * * * * * * * * * * * * * * * //

dimensions      [0 1 -1 0 0 0 0];

internalField   nonuniform List<vector> 
93840
(
(0.717763 -0.721527 9.89007e-18)
(0.895202 0.343151 1.27738e-17)
(0.63865 -0.599014 9.45203e-18)
(0.788672 -0.312913 -5.94739e-18)
(0.982903 0.238233 9.24056e-18)
(0.592105 -0.496408 1.23643e-17)
(0.972512 0.32362 6.61001e-17)
(0.772975 -0.153087 3.29776e-18)
(0.911315 0.204925 2.44606e-18)
(0.661086 -0.377088 2.48184e-17)
(0.853638 -0.0990073 -2.96907e-17)
(1.01282 0.144968 9.4308e-17)
(0.85173 -0.131962 2.7615e-17)
(0.925129 0.153593 -5.47392e-17)
(0.639043 -0.196942 -4.17149e-18)
(0.836422 0.0549395 -1.45562e-16)
(0.801449 -0.125853 -6.22387e-17)
(0.934438 0.135351 5.71258e-17)
(0.828783 -0.122174 2.27618e-17)
(0.880793 0.0555036 -7.05344e-17)
(0.679792 0.00177492 3.11206e-18)
(0.801009 -0.0238596 1.17339e-18)
(0.852368 0.149056 -1.72517e-16)
(0.807364 -0.102304 -6.16498e-17)
(1.01562 0.115523 9.91375e-17)
(0.810293 -0.0304032 -3.36575e-18)
(0.883267 0.0184073 4.28522e-17)
(0.778534 0.113658 5.11987e-18)
(0.805453 0.0496696 5.67998e-17)
(0.761788 -0.125793 5.1831e-17)
(0.893252 0.132393 -1.64902e-16)
(0.814423 -0.0951383 -1.66411e-16)
(0.912974 0.0353437 1.00741e-16)
(0.871079 0.0382911 -3.38821e-17)
(0.884055 0.0154786 -2.15654e-17)
(0.888476 0.201268 -1.3566e-17)
(0.78842 -0.022013 4.47073e-17)
(0.839027 0.150223 6.2704e-17)
(0.77893 -0.0840325 -1.90114e-17)
(0.880542 0.0892946 -1.5449e-16)
(0.771059 -0.0254398 -3.40459e-16)
(0.879796 0.0198192 -7.41268e-17)
(0.877143 0.0428268 -7.34741e-17)
(0.891936 -0.00445185 1.44768e-17)
(0.893057 0.189809 1.20457e-17)
(0.819359 0.0513137 -7.44636e-20)
(0.779593 -0.0696564 5.38076e-17)
(0.824499 0.119798 7.43956e-17)
(0.746275 -0.0759629 1.3835e-16)
(0.836659 0.0252902 1.30128e-16)
(0.829181 0.0402356 3.08206e-18)
(0.827203 0.0216676 1.17051e-16)
(0.868559 0.0289025 3.31772e-18)
(0.898088 -0.00915137 -7.67286e-18)
(0.993761 0.238972 -2.74857e-18)
(0.811283 -0.022617 1.05251e-16)
(0.832388 0.0650589 1.35202e-17)
(0.785261 -0.067043 7.02973e-17)
(0.818776 0.0712974 1.07446e-16)
(0.769435 -0.0118568 1.43352e-16)
(0.840735 0.0192528 1.154e-16)
(0.825816 0.0300013 -9.54255e-17)
(0.844213 0.0102029 -4.64621e-17)
(0.893442 0.0407312 -6.89733e-17)
(0.884867 -0.0192183 6.01539e-20)
(0.929328 0.175894 9.54383e-18)
(0.828204 0.0513033 -1.0934e-16)
(0.796559 -0.0370412 7.77958e-17)
(0.801194 0.0957976 -3.96403e-17)
(0.797652 -0.0486773 3.50603e-17)
(0.859538 0.0225019 7.08067e-17)
(0.828729 0.0389949 -7.89917e-17)
(0.792997 0.0116837 -3.50747e-17)
(0.82438 0.0281458 -5.46244e-17)
(0.853531 0.00770153 5.5868e-17)
(0.899916 0.0424795 -1.37559e-17)
(0.886866 -0.00248114 -6.24995e-18)
(0.972866 0.258692 -5.63656e-19)
(0.791781 -0.0210783 -9.06096e-18)
(0.837841 0.0696409 -1.4307e-16)
(0.801789 -0.0475557 1.0191e-16)
(0.834908 0.0484819 3.43239e-17)
(0.833705 -0.00377758 2.25823e-17)
(0.829314 0.0157193 -7.88492e-18)
(0.798698 0.0183021 1.30467e-16)
(0.831242 0.00972201 1.63565e-16)
(0.840996 0.034633 -6.246e-17)
(0.842534 0.0089618 -2.56639e-17)
(0.914227 0.0399502 -6.49763e-17)
(0.893021 -0.00473181 -5.58665e-18)
(0.954128 0.180404 8.59975e-18)
(0.830865 0.0518882 -9.97118e-17)
(0.778461 -0.0371789 -6.10431e-17)
(0.803629 0.0881076 -1.45781e-16)
(0.804962 -0.0306377 6.5509e-17)
(0.837738 0.0169731 2.07075e-17)
(0.805422 0.0348322 1.0151e-17)
(0.804777 0.00722044 -2.80549e-17)
(0.841683 0.0331156 -4.4102e-17)
(0.822076 0.0119791 -8.42497e-18)
(0.840296 0.0314317 -6.80356e-17)
(0.851046 0.0141196 3.69019e-17)
(0.887925 0.0374966 -1.41246e-17)
(0.893176 -0.0065344 -6.01741e-18)
(0.992113 0.266111 -3.66001e-20)
(0.803632 -0.0186505 6.43498e-17)
(0.848743 0.0735538 -5.35585e-17)
(0.808174 -0.0308873 -2.43023e-17)
(0.817894 0.0411333 -2.79512e-16)
(0.827102 0.00283833 -1.74225e-16)
(0.798952 0.0129028 -9.6762e-17)
(0.824124 0.012933 -6.13108e-17)
(0.851957 0.0152481 -6.48899e-17)
(0.821996 0.0205748 5.60655e-17)
(0.834168 0.00966199 1.68681e-16)
(0.854392 0.0318302 -4.70808e-17)
(0.851371 0.0160909 3.0152e-18)
(0.910301 0.0357311 -6.36351e-17)
(0.897403 -0.00477703 -7.25849e-18)
(0.965026 0.179213 9.22852e-18)
(0.833807 0.053075 -1.34558e-17)
(0.799025 -0.0324649 1.31393e-16)
(0.804432 0.0770353 -3.57538e-17)
(0.787975 -0.0187121 6.68777e-17)
(0.807794 0.0120827 -6.62248e-17)
(0.794675 0.0318724 -1.25376e-17)
(0.804687 0.00522996 9.32891e-17)
(0.815736 0.0336997 3.07957e-17)
(0.818482 0.00829314 -1.58151e-17)
(0.846165 0.0322127 -3.5049e-17)
(0.832816 0.0129354 1.63206e-17)
(0.842109 0.0306652 -7.56079e-17)
(0.851836 0.0131693 1.94996e-17)
(0.895467 0.0339103 -1.87908e-17)
(0.898187 -0.00656756 -7.28541e-18)
(1.00029 0.266551 5.07737e-19)
(0.811659 -0.0162481 5.92024e-17)
(0.853638 0.0745465 -6.24038e-17)
(0.816175 -0.0200915 -1.61713e-17)
(0.80474 0.0317164 -1.36323e-16)
(0.815999 0.00757395 9.81702e-17)
(0.782503 0.0112183 1.58651e-16)
(0.810261 0.00590362 1.58931e-16)
(0.810362 0.013839 3.82779e-18)
(0.824498 0.00927707 -3.34083e-17)
(0.858818 0.0154296 -6.84512e-17)
(0.83856 0.0227426 1.8802e-17)
(0.839117 0.0138397 1.56617e-16)
(0.859834 0.0310677 -3.41801e-17)
(0.85476 0.0196571 6.74129e-18)
(0.905275 0.0340045 -5.96487e-17)
(0.900846 -0.00541907 -8.83385e-18)
(0.975154 0.175932 9.68442e-18)
(0.842239 0.0505957 -6.52814e-17)
(0.798597 -0.0259553 5.50408e-17)
(0.81126 0.0682966 3.60481e-17)
(0.801984 -0.00729003 9.22352e-17)
(0.813765 0.0101695 -1.29048e-17)
(0.800283 0.0290815 -1.05484e-16)
(0.795922 0.00416374 -2.69012e-16)
(0.795629 0.0291101 -1.32695e-16)
(0.811488 0.00686956 5.27534e-17)
(0.821417 0.0341939 3.96237e-17)
(0.825717 0.00958321 -8.48225e-18)
(0.848648 0.0306956 -3.09383e-17)
(0.839449 0.0145496 3.87838e-17)
(0.84673 0.0300204 -8.02494e-17)
(0.854998 0.0145016 1.79206e-17)
(0.898025 0.0320295 -2.576e-17)
(0.90101 -0.00662953 -8.79059e-18)
(1.0036 0.26286 1.67783e-19)
(0.817631 -0.0132616 3.52073e-17)
(0.862359 0.0742842 -1.05462e-16)
(0.831036 -0.0106884 9.14904e-17)
(0.801463 0.0248801 2.01497e-16)
(0.832075 0.0116351 1.85227e-16)
(0.802478 0.0104794 -5.75986e-17)
(0.813635 0.00185189 -9.29699e-18)
(0.804719 0.011469 5.94014e-17)
(0.815729 0.00542189 1.84305e-16)
(0.81552 0.0159843 3.71633e-17)
(0.825062 0.0103216 -2.34597e-17)
(0.858874 0.0181412 -7.19109e-17)
(0.848688 0.0249676 -2.81166e-18)
(0.841975 0.016458 1.53542e-16)
(0.861081 0.0298126 -2.66021e-17)
(0.85769 0.0215845 5.34357e-18)
(0.904352 0.0335998 -5.18677e-17)
(0.902652 -0.00537183 -9.90059e-18)
(0.979871 0.171207 9.6641e-18)
(0.837637 0.0487421 -8.08468e-17)
(0.813034 -0.0191445 2.97413e-17)
(0.818061 0.0591175 -1.10714e-16)
(0.818124 1.07903e-05 -2.67761e-17)
(0.823685 0.00930718 8.11665e-18)
(0.810207 0.0265949 -5.67619e-17)
(0.810839 0.00601005 5.18822e-17)
(0.812981 0.0269136 -2.08895e-17)
(0.81037 0.00726688 -2.41598e-16)
(0.801077 0.0296934 -1.74888e-16)
(0.815162 0.00801155 2.12166e-17)
(0.824229 0.0347978 4.12251e-17)
(0.830849 0.011288 -7.44771e-18)
(0.851459 0.028942 -2.74174e-17)
(0.844589 0.0160982 4.67949e-17)
(0.850893 0.030042 -8.10131e-17)
(0.857451 0.0161072 1.84016e-17)
(0.900644 0.0311311 -3.24955e-17)
(0.902369 -0.00601285 -1.00733e-17)
(1.00029 0.257809 1.29213e-19)
(0.820747 -0.0135164 1.52991e-17)
(0.856456 0.0725321 -2.92226e-18)
(0.842724 -0.00134035 7.46514e-17)
(0.806414 0.0202434 -9.99291e-17)
(0.839761 0.0156538 -1.19119e-16)
(0.805073 0.0107572 9.11742e-17)
(0.814175 0.000703549 2.91146e-16)
(0.827533 0.00934103 1.46741e-16)
(0.825129 0.00299328 -4.95542e-18)
(0.812523 0.0131404 2.01507e-17)
(0.817672 0.00651012 1.80838e-16)
(0.818351 0.017205 5.81903e-17)
(0.82576 0.0106611 -9.19008e-18)
(0.856897 0.0193964 -6.91816e-17)
(0.854737 0.0272975 -2.39109e-17)
(0.846169 0.0187828 1.58355e-16)
(0.862942 0.0295456 -2.40959e-17)
(0.860203 0.0228912 5.87216e-18)
(0.904045 0.0335189 -4.50216e-17)
(0.903119 -0.00488756 -1.14097e-17)
(0.983496 0.166297 1.05398e-17)
(0.834364 0.0508253 2.84816e-16)
(0.813361 -0.0128651 8.82525e-17)
(0.812524 0.0488952 -2.1893e-17)
(0.829486 0.00539807 3.7461e-17)
(0.829677 0.0104699 -3.84363e-17)
(0.825173 0.024757 -1.65178e-17)
(0.831892 0.00460926 -6.7473e-17)
(0.815299 0.0261364 -1.03243e-16)
(0.821317 0.00840941 5.82486e-17)
(0.819824 0.0277564 2.84342e-17)
(0.81706 0.00914106 -2.08668e-16)
(0.805685 0.0304395 -1.91413e-16)
(0.816277 0.00889654 1.09649e-19)
(0.828076 0.0345591 3.65027e-17)
(0.836709 0.0146462 -1.7887e-17)
(0.853305 0.0285887 -2.70301e-17)
(0.847499 0.0177738 4.84344e-17)
(0.855289 0.0297767 -7.90842e-17)
(0.858805 0.0173035 1.88349e-17)
(0.902848 0.0310223 -3.4591e-17)
(0.902346 -0.00578279 -1.20175e-17)
(0.991795 0.252294 7.29974e-19)
(0.817376 -0.0131266 -4.45677e-16)
(0.855088 0.0700736 1.10687e-16)
(0.851815 0.007805 -7.92877e-17)
(0.809986 0.0173052 -2.25493e-16)
(0.848077 0.0187466 1.19047e-17)
(0.817371 0.0125117 -3.09956e-17)
(0.829697 0.000218708 -1.15735e-16)
(0.834551 0.00903636 -1.32806e-16)
(0.822878 0.000603013 1.97652e-16)
(0.833057 0.0110183 1.79049e-16)
(0.829414 0.0044398 9.54016e-18)
(0.817555 0.0143693 -1.31569e-18)
(0.819624 0.00738472 1.73709e-16)
(0.821343 0.0182914 7.21489e-17)
(0.825804 0.0108434 1.10068e-18)
(0.858093 0.0188699 -5.74778e-17)
(0.85795 0.026538 -3.73462e-17)
(0.849748 0.0200952 1.61483e-16)
(0.864322 0.0292647 -2.03926e-17)
(0.861277 0.0242242 6.51427e-18)
(0.903852 0.033855 -4.6355e-17)
(0.901745 -0.00455149 -1.22542e-17)
(0.989753 0.162678 1.04212e-17)
(0.840824 0.0530649 1.45794e-16)
(0.80392 -0.00702344 -5.03459e-16)
(0.811343 0.0412608 5.92843e-17)
(0.843844 0.010581 7.22643e-17)
(0.837478 0.0126869 9.09174e-18)
(0.837165 0.0231207 6.87223e-17)
(0.836588 0.00396446 -1.03966e-16)
(0.823278 0.0246383 -6.17353e-17)
(0.841573 0.00694712 -5.04313e-17)
(0.821879 0.0270356 -1.20281e-16)
(0.827645 0.0101608 3.85883e-17)
(0.824057 0.028086 5.3223e-17)
(0.821005 0.0106783 -1.81858e-16)
(0.809666 0.0311513 -2.0017e-16)
(0.817108 0.0104538 -1.55622e-17)
(0.829295 0.0343629 3.56996e-17)
(0.836988 0.015992 -1.80314e-17)
(0.857287 0.0293363 -2.82679e-17)
(0.849732 0.019344 5.30341e-17)
(0.859138 0.0299935 -8.00504e-17)
(0.860025 0.0186445 1.81303e-17)
(0.904345 0.0310695 -3.33051e-17)
(0.901181 -0.00616395 -1.26006e-17)
(0.98212 0.247276 3.14865e-18)
(0.824173 -0.0105815 8.52273e-17)
(0.856892 0.0683759 2.61275e-16)
(0.863794 0.0181988 -3.1317e-16)
(0.813599 0.0157809 1.81454e-16)
(0.855334 0.0208443 1.38688e-16)
(0.826019 0.0142507 -8.63497e-17)
(0.835473 0.000162861 -1.21503e-16)
(0.836866 0.00886493 -2.80482e-17)
(0.833994 -0.000726248 -8.82842e-17)
(0.841411 0.0109385 -1.7274e-16)
(0.826414 0.000656074 1.54276e-16)
(0.835424 0.0117727 1.85432e-16)
(0.832492 0.00548368 2.4285e-17)
(0.82129 0.015231 -1.50693e-17)
(0.821384 0.00831999 1.65834e-16)
(0.823501 0.0193246 8.07274e-17)
(0.8274 0.0130662 1.03126e-17)
(0.855428 0.0204094 -5.45563e-17)
(0.860515 0.0266705 -4.92645e-17)
(0.851885 0.0215495 1.61495e-16)
(0.865861 0.029252 -1.39795e-17)
(0.861125 0.0255604 7.96992e-18)
(0.903033 0.0340836 -4.8848e-17)
(0.905171 -0.00594527 -1.36022e-17)
(1.01799 0.202469 6.23858e-18)
(0.839464 0.0534589 1.3354e-16)
(0.807794 -0.00154268 5.48964e-17)
(0.811422 0.0347969 2.66651e-16)
(0.862328 0.0144851 -4.44741e-16)
(0.845002 0.01508 -2.65056e-16)
(0.847552 0.0229098 -1.78963e-16)
(0.847569 0.00457799 -1.05118e-16)
(0.841085 0.0230777 8.84468e-17)
(0.847307 0.00606448 -5.37745e-17)
(0.827814 0.0248819 -7.05068e-17)
(0.844982 0.00828856 -4.76522e-17)
(0.824731 0.0282958 -1.29183e-16)
(0.831874 0.011754 2.69137e-17)
(0.827652 0.0281969 6.67288e-17)
(0.824213 0.0120327 -1.59964e-16)
(0.812945 0.0314192 -2.03684e-16)
(0.817304 0.0116136 -2.8355e-17)
(0.830831 0.0331085 3.36586e-17)
(0.839423 0.0186821 -2.32933e-17)
(0.860821 0.0298697 -2.79588e-17)
(0.852094 0.0207877 5.49646e-17)
(0.862339 0.0302539 -8.35667e-17)
(0.861105 0.0199423 1.70439e-17)
(0.905611 0.0314977 -3.30254e-17)
(0.912943 -0.0117167 -1.38861e-17)
(1.03536 0.194993 6.17881e-18)
(0.819395 -0.00771671 -2.00698e-17)
(0.852724 0.0652715 1.39616e-16)
(0.855538 0.0282195 6.97532e-17)
(0.818033 0.015069 4.42714e-16)
(0.857698 0.0220822 -7.6915e-18)
(0.824917 0.015707 1.02231e-16)
(0.834854 0.00216059 3.41567e-16)
(0.841442 0.0105496 3.14125e-16)
(0.839033 0.000166137 -1.11925e-17)
(0.842706 0.0107924 -1.38345e-17)
(0.836 -0.000313068 -6.72365e-17)
(0.846635 0.0121252 -1.92205e-16)
(0.829527 0.000748505 1.21675e-16)
(0.836462 0.0124095 1.92018e-16)
(0.835277 0.00692616 4.02325e-17)
(0.824794 0.015899 -3.01155e-17)
(0.822494 0.0090802 1.58755e-16)
(0.824542 0.0201492 8.92535e-17)
(0.828557 0.0146608 1.93987e-17)
(0.854122 0.0202348 -4.52764e-17)
(0.86258 0.0266348 -6.0457e-17)
(0.854156 0.0228644 1.63501e-16)
(0.866858 0.0289591 -8.47323e-18)
(0.861519 0.0261619 1.00157e-17)
(0.904463 0.0355399 -4.68116e-17)
(0.879822 -0.00521523 -1.54276e-17)
(1.01108 0.177539 5.86671e-18)
(0.829749 0.0529684 -4.40584e-16)
(0.803548 0.00380789 -1.87029e-16)
(0.802593 0.0291502 2.2394e-17)
(0.864801 0.0170963 -1.82889e-17)
(0.840564 0.0159224 3.7221e-16)
(0.843308 0.0221883 3.83766e-16)
(0.837476 0.00466166 2.88427e-16)
(0.832771 0.0214465 -1.70425e-18)
(0.84958 0.00504816 -1.13998e-16)
(0.843091 0.0229585 7.79177e-17)
(0.851011 0.00750297 -2.99321e-17)
(0.830106 0.0250791 -7.28812e-17)
(0.846556 0.00892036 -5.25486e-17)
(0.826621 0.029427 -1.33492e-16)
(0.835917 0.0135967 1.87783e-17)
(0.83069 0.0280879 7.67847e-17)
(0.826327 0.0131044 -1.41439e-16)
(0.815801 0.0313491 -2.04631e-16)
(0.81809 0.0130985 -3.90389e-17)
(0.831762 0.0316827 3.22082e-17)
(0.841665 0.0195373 -2.44556e-17)
(0.8637 0.0302208 -3.00442e-17)
(0.854028 0.0220722 5.86345e-17)
(0.865215 0.0304153 -8.16878e-17)
(0.861987 0.0221946 1.78449e-17)
(0.916921 0.0335642 -3.37747e-17)
(0.88136 0.00369538 -1.38553e-17)
(1.0021 0.191474 6.579e-18)
(0.81636 -0.00617487 5.60345e-16)
(0.836844 0.0616817 -1.65273e-16)
(0.850514 0.0357301 -4.88999e-17)
(0.810255 0.016266 1.37517e-16)
(0.84778 0.0224103 -1.15827e-16)
(0.81313 0.0168325 -1.6319e-16)
(0.827781 0.0045883 -3.33236e-16)
(0.834754 0.0124388 -3.85544e-16)
(0.832146 0.00147963 6.24717e-17)
(0.845124 0.0120455 3.16647e-16)
(0.840407 0.000548856 3.41762e-17)
(0.847257 0.0122993 -6.05126e-18)
(0.837198 0.000482123 -5.00692e-17)
(0.851426 0.0133416 -1.94361e-16)
(0.832893 0.00550941 5.83454e-17)
(0.837231 0.0124347 1.91911e-16)
(0.836244 0.00802077 5.30552e-17)
(0.827414 0.0168201 -3.85391e-17)
(0.823662 0.00969236 1.49454e-16)
(0.82522 0.020796 8.99327e-17)
(0.829879 0.0163221 2.69309e-17)
(0.853316 0.0214135 -3.98341e-17)
(0.864131 0.0269843 -6.89371e-17)
(0.855912 0.024161 1.62321e-16)
(0.867449 0.0288841 -5.80488e-18)
(0.862185 0.0255233 1.08159e-17)
(0.911571 0.0301394 -4.52242e-17)
(0.888122 0.00297041 -1.59034e-17)
(0.992538 0.175132 6.34046e-18)
(0.829859 0.0521885 -2.20932e-16)
(0.800227 0.00800801 6.90916e-16)
(0.788635 0.0241873 -4.91942e-18)
(0.851847 0.0190856 -1.09223e-16)
(0.827885 0.0158299 -8.02086e-17)
(0.831989 0.0227423 5.75093e-17)
(0.834458 0.00686065 3.38689e-17)
(0.836185 0.0202528 1.93396e-16)
(0.842024 0.00540762 3.53626e-16)
(0.831634 0.0209849 8.63279e-17)
(0.850575 0.00659559 -1.12199e-16)
(0.843268 0.0223832 7.60598e-17)
(0.853564 0.00898328 -1.38629e-17)
(0.832025 0.0251233 -7.21363e-17)
(0.847577 0.00936787 -5.17269e-17)
(0.83347 0.0247459 -9.79225e-17)
(0.837066 0.0139905 1.69391e-17)
(0.833098 0.0278752 8.22609e-17)
(0.828027 0.0139982 -1.24227e-16)
(0.81858 0.0310904 -2.05704e-16)
(0.819726 0.0150779 -3.79279e-17)
(0.832193 0.030447 3.10445e-17)
(0.84323 0.0206574 -2.3349e-17)
(0.865634 0.0303191 -3.0791e-17)
(0.855631 0.023787 6.47768e-17)
(0.867156 0.0309978 -8.24899e-17)
(0.861287 0.0251275 1.60021e-17)
(0.908034 0.0318334 -3.33693e-17)
(0.891609 0.00269609 -1.64966e-17)
(0.9926 0.187875 7.0236e-18)
(0.817877 -0.00557894 -5.70176e-17)
(0.82601 0.0578714 -5.88849e-16)
(0.838485 0.0414058 3.49176e-16)
(0.793913 0.0183449 -3.74377e-16)
(0.836838 0.0224648 -5.27428e-16)
(0.800923 0.0181553 -5.5753e-16)
(0.821202 0.00808783 -5.46864e-16)
(0.827329 0.014453 -3.38484e-16)
(0.823346 0.00229503 -3.66147e-16)
(0.837178 0.0137055 -4.79395e-16)
(0.831353 0.0014517 -4.65655e-17)
(0.847635 0.012867 2.96319e-16)
(0.840875 0.00130719 5.4265e-17)
(0.850749 0.0134861 2.64752e-18)
(0.837934 0.00150873 -3.50288e-17)
(0.852443 0.0148325 -1.96057e-16)
(0.831127 0.00660039 3.52253e-17)
(0.839458 0.0141627 1.82611e-16)
(0.837078 0.00891192 6.56953e-17)
(0.829674 0.0177737 -4.62645e-17)
(0.824224 0.0111288 1.27561e-16)
(0.827305 0.0209805 8.32178e-17)
(0.830775 0.0171135 3.23531e-17)
(0.852117 0.0227192 -3.45972e-17)
(0.865462 0.0272294 -7.71925e-17)
(0.857957 0.0248313 1.58122e-16)
(0.868528 0.0288284 -3.9586e-18)
(0.862205 0.0277906 1.21372e-17)
(0.906234 0.0295007 -4.48921e-17)
(0.893249 0.00293841 -1.56142e-17)
(0.987728 0.170724 6.77617e-18)
(0.836013 0.0512182 2.55674e-16)
(0.797773 0.0113251 1.81538e-16)
(0.769608 0.0194686 -4.40852e-16)
(0.831901 0.0205962 6.37258e-16)
(0.81264 0.0156828 5.69921e-16)
(0.816653 0.0245374 4.45604e-16)
(0.826645 0.00922395 4.32964e-16)
(0.818617 0.0208387 4.84217e-16)
(0.831974 0.0064323 2.36549e-16)
(0.832326 0.0195357 1.88367e-16)
(0.844761 0.00672912 3.62868e-16)
(0.830526 0.0207207 1.34972e-16)
(0.851191 0.00796184 -1.00419e-16)
(0.843561 0.0218956 7.41925e-17)
(0.855453 0.0101775 -3.30112e-18)
(0.833874 0.0242307 -6.72349e-17)
(0.850386 0.0109767 -5.40519e-17)
(0.834254 0.0246474 -9.61925e-17)
(0.83823 0.0144122 1.51335e-17)
(0.834566 0.0277805 8.73627e-17)
(0.829331 0.0150289 -1.11452e-16)
(0.821005 0.0299436 -1.88342e-16)
(0.819751 0.0162287 -4.4393e-17)
(0.832164 0.0302542 2.98064e-17)
(0.845331 0.0218897 -2.24427e-17)
(0.866757 0.0304132 -3.33605e-17)
(0.857266 0.0251662 6.76218e-17)
(0.86839 0.031194 -7.91375e-17)
(0.861323 0.0267354 1.68071e-17)
(0.904979 0.0311638 -3.34801e-17)
(0.894399 0.00334788 -1.83847e-17)
(0.988364 0.183212 7.43442e-18)
(0.823339 -0.00478262 -5.22919e-16)
(0.83358 0.0531345 1.23382e-16)
(0.831942 0.0446538 1.6952e-16)
(0.779349 0.0206006 -4.55306e-16)
(0.824519 0.0230413 2.9363e-16)
(0.791746 0.0191227 2.53748e-16)
(0.813941 0.0106297 2.73593e-16)
(0.81296 0.0169088 -1.09089e-16)
(0.813827 0.00400015 -4.80035e-16)
(0.829529 0.0161294 -3.46694e-16)
(0.8222 0.00255634 -3.45011e-16)
(0.838389 0.0147353 -5.07613e-16)
(0.830859 0.00208965 -1.10844e-16)
(0.849077 0.0140245 2.74016e-16)
(0.841127 0.00228096 6.90286e-17)
(0.853135 0.014462 7.6787e-18)
(0.838504 0.00277674 -2.66061e-17)
(0.853647 0.0152334 -1.92028e-16)
(0.833091 0.00770619 1.43777e-17)
(0.840458 0.014765 1.72317e-16)
(0.838074 0.00964529 7.33743e-17)
(0.831642 0.0185571 -4.76932e-17)
(0.824487 0.01201 1.09169e-16)
(0.828001 0.0219202 7.89075e-17)
(0.830829 0.0181743 3.75897e-17)
(0.851933 0.0235326 -3.19735e-17)
(0.866342 0.0275528 -8.35637e-17)
(0.85911 0.0260389 1.55956e-16)
(0.869111 0.0288134 -2.0178e-18)
(0.862391 0.0290931 1.10087e-17)
(0.904722 0.0294405 -4.44551e-17)
(0.895201 0.0036501 -1.78964e-17)
(0.987092 0.166297 3.77948e-18)
(0.828119 0.0500561 2.064e-16)
(0.80199 0.0143498 -6.34469e-16)
(0.773701 0.0157904 1.62744e-16)
(0.821479 0.0229491 1.23116e-16)
(0.807252 0.0164707 -8.52256e-16)
(0.811294 0.0265074 -7.64302e-16)
(0.822649 0.0127162 -5.83781e-16)
(0.808975 0.0227734 -4.36396e-16)
(0.827892 0.00955095 2.12144e-17)
(0.815896 0.0198276 4.22029e-16)
(0.833005 0.00732863 2.67064e-16)
(0.830385 0.0191078 1.7952e-16)
(0.846011 0.00750733 3.60978e-16)
(0.830233 0.0201664 1.49013e-16)
(0.850564 0.00909706 -9.13768e-17)
(0.843526 0.0217602 7.08255e-17)
(0.856804 0.0116042 3.80185e-18)
(0.834603 0.024539 -6.5134e-17)
(0.852654 0.0122607 -5.906e-17)
(0.834494 0.0248604 -9.94082e-17)
(0.839608 0.015561 1.58033e-17)
(0.835711 0.0275756 8.90417e-17)
(0.831117 0.0161537 -1.00924e-16)
(0.822799 0.0296023 -1.81307e-16)
(0.821929 0.0170179 -4.10594e-17)
(0.831884 0.0294719 2.91711e-17)
(0.846481 0.0229919 -2.02763e-17)
(0.867725 0.0304305 -3.79423e-17)
(0.858575 0.0263031 7.11175e-17)
(0.869363 0.0313023 -8.02052e-17)
(0.861712 0.0277535 1.52316e-17)
(0.903755 0.0309883 -2.9114e-17)
(0.895552 0.00395159 -1.89391e-17)
(0.987481 0.177518 1.09112e-17)
(0.820109 -0.00354212 -2.59406e-17)
(0.824919 0.0478184 3.95069e-16)
(0.826756 0.0455868 -4.99085e-16)
(0.769803 0.0227399 3.43357e-16)
(0.817483 0.0244529 8.28481e-16)
(0.791765 0.020031 6.3231e-16)
(0.812162 0.013582 5.5963e-16)
(0.811262 0.0192658 6.07543e-16)
(0.811454 0.00696048 6.56484e-16)
(0.818388 0.0182746 1.38477e-16)
(0.811931 0.00349851 -4.04558e-16)
(0.831249 0.0167973 -3.49389e-16)
(0.821586 0.00301736 -3.23856e-16)
(0.839044 0.0154013 -5.16217e-16)
(0.831899 0.00271265 -1.47552e-16)
(0.849875 0.0143533 2.60612e-16)
(0.842592 0.00319493 8.40263e-17)
(0.855125 0.0148122 1.3501e-17)
(0.839292 0.00340331 -1.68562e-17)
(0.85414 0.0153129 -1.88006e-16)
(0.834498 0.00841975 -1.72236e-19)
(0.841124 0.0156598 1.66863e-16)
(0.838611 0.0104509 8.31941e-17)
(0.833248 0.0192978 -5.18309e-17)
(0.824896 0.0127314 1.00364e-16)
(0.828141 0.0229912 6.92946e-17)
(0.83098 0.0202995 4.07017e-17)
(0.85108 0.0247582 -2.80128e-17)
(0.866974 0.027794 -8.74029e-17)
(0.860613 0.0273353 1.54144e-16)
(0.869436 0.0286954 1.9947e-18)
(0.862406 0.0301363 1.27058e-17)
(0.904503 0.0295257 -5.05685e-17)
(0.894768 0.00480332 -1.92526e-17)
(0.986924 0.161521 4.50632e-18)
(0.82921 0.0483783 1.07275e-16)
(0.800063 0.0164898 -3.72612e-17)
(0.776808 0.0133075 2.80942e-16)
(0.81941 0.0251132 -7.79415e-16)
(0.806777 0.0177203 -3.84393e-16)
(0.808757 0.0279923 1.1577e-16)
(0.818148 0.015615 5.0231e-17)
(0.80224 0.0251876 -1.61618e-16)
(0.82474 0.0121897 -4.42736e-16)
(0.805451 0.0213732 -5.29331e-16)
(0.830088 0.0101601 -1.19661e-16)
(0.815759 0.0195418 3.83699e-16)
(0.833095 0.00792088 2.84518e-16)
(0.829289 0.0189832 1.55471e-16)
(0.845784 0.00844907 3.52079e-16)
(0.830122 0.0201809 1.68056e-16)
(0.85014 0.0101453 -8.26387e-17)
(0.843541 0.0215906 6.55628e-17)
(0.85817 0.0127313 8.85851e-18)
(0.835418 0.0244548 -6.28965e-17)
(0.854531 0.013599 -6.20015e-17)
(0.834743 0.0248748 -1.00244e-16)
(0.841282 0.0163428 1.37754e-17)
(0.836546 0.0273946 9.19012e-17)
(0.832422 0.0173279 -8.89932e-17)
(0.823883 0.0294734 -1.8059e-16)
(0.823831 0.0199395 -2.6793e-17)
(0.83262 0.0277021 3.04683e-17)
(0.847739 0.0237736 -1.85061e-17)
(0.868601 0.0304076 -3.99001e-17)
(0.859861 0.0274216 7.40613e-17)
(0.869984 0.0313304 -8.1219e-17)
(0.862235 0.0286288 1.3143e-17)
(0.903536 0.0311859 -2.75735e-17)
(0.894291 0.00539321 -1.99954e-17)
(0.987333 0.171835 1.42097e-17)
(0.816009 -0.00207514 1.29801e-16)
(0.821267 0.0427335 3.08263e-16)
(0.821593 0.046207 3.28257e-17)
(0.770438 0.0243058 3.02852e-16)
(0.808605 0.0265347 -4.7278e-16)
(0.788488 0.0211459 -4.56702e-16)
(0.803748 0.0161973 -3.19902e-16)
(0.802943 0.0204489 -2.20652e-16)
(0.801575 0.00964857 5.0849e-17)
(0.81509 0.0202963 4.32666e-16)
(0.810255 0.00592596 6.96005e-16)
(0.821243 0.0189962 2.51958e-16)
(0.811227 0.00393088 -3.47068e-16)
(0.831767 0.0171147 -3.47663e-16)
(0.821819 0.00349971 -2.92155e-16)
(0.839461 0.0157775 -5.06406e-16)
(0.831943 0.00325554 -1.84676e-16)
(0.850546 0.0148129 2.40582e-16)
(0.842935 0.00471014 9.14599e-17)
(0.856526 0.0151191 1.81652e-17)
(0.839217 0.00675204 -1.26708e-17)
(0.855362 0.01536 -1.82258e-16)
(0.835542 0.00948614 -1.73644e-17)
(0.84176 0.0164009 1.6422e-16)
(0.838928 0.0111556 8.89687e-17)
(0.834957 0.0201247 -5.40293e-17)
(0.825051 0.013173 9.44017e-17)
(0.829625 0.0220097 5.97825e-17)
(0.830239 0.0209576 4.26543e-17)
(0.850552 0.0259227 -2.71503e-17)
(0.866969 0.0279566 -9.46196e-17)
(0.862018 0.0283697 1.50956e-16)
(0.869562 0.0285391 8.4903e-18)
(0.862613 0.0305637 1.51157e-17)
(0.904188 0.029709 -4.7941e-17)
(0.893662 0.00606706 -2.04672e-17)
(0.986665 0.156929 5.55196e-18)
(0.824926 0.0463542 6.20888e-17)
(0.806897 0.0182753 -3.81944e-17)
(0.783304 0.0115687 1.42084e-16)
(0.810624 0.0270178 3.92758e-17)
(0.798014 0.0197215 7.58999e-16)
(0.805299 0.0290386 4.70648e-16)
(0.817655 0.0185507 1.39448e-17)
(0.804075 0.0265005 4.4977e-17)
(0.823304 0.0146464 1.97909e-16)
(0.798553 0.0227872 -8.11193e-18)
(0.826923 0.0123699 -3.59451e-16)
(0.804649 0.0209174 -5.54e-16)
(0.830523 0.0101949 -1.99584e-16)
(0.815572 0.0194035 3.38556e-16)
(0.832725 0.00857149 2.93745e-16)
(0.828795 0.018866 1.48278e-16)
(0.845678 0.00940716 3.25822e-16)
(0.830429 0.0201194 1.81286e-16)
(0.850118 0.0112748 -7.06979e-17)
(0.844379 0.0209407 6.59152e-17)
(0.858722 0.0136399 1.25996e-17)
(0.83687 0.0220227 -5.69303e-17)
(0.855402 0.0147198 -6.81442e-17)
(0.835578 0.0243854 -9.65597e-17)
(0.841745 0.0171626 9.61225e-18)
(0.837117 0.0272454 9.53205e-17)
(0.834065 0.0182304 -8.17552e-17)
(0.824675 0.0293352 -1.78683e-16)
(0.823293 0.0208334 -3.44718e-17)
(0.832705 0.0273462 2.90758e-17)
(0.848643 0.0246991 -1.48988e-17)
(0.869036 0.0305187 -4.03542e-17)
(0.861045 0.0284918 7.73104e-17)
(0.870353 0.0313575 -8.46465e-17)
(0.863112 0.0297955 1.13096e-17)
(0.903124 0.0306934 -2.94845e-17)
(0.89293 0.00680299 -2.13567e-17)
(0.987104 0.166169 1.06237e-17)
(0.823888 -0.000613984 -3.05833e-16)
(0.828131 0.0383951 -1.84361e-16)
(0.836432 0.0464005 -2.27085e-16)
(0.786044 0.0260826 1.12523e-16)
(0.813259 0.0286576 -7.25376e-17)
(0.804541 0.0226631 1.19171e-16)
(0.817849 0.0187621 1.28357e-16)
(0.820203 0.0214862 6.58765e-17)
(0.806567 0.0129257 -7.36559e-17)
(0.811031 0.0220678 -2.4388e-16)
(0.799474 0.00845492 -5.33407e-17)
(0.816035 0.0208243 3.39218e-16)
(0.809949 0.00585902 6.94451e-16)
(0.822613 0.0192875 3.204e-16)
(0.811209 0.00437218 -2.93784e-16)
(0.831708 0.0172903 -3.4299e-16)
(0.822084 0.00389117 -2.78457e-16)
(0.839863 0.0152283 -4.69379e-16)
(0.831883 0.00375572 -2.11773e-16)
(0.8505 0.015248 2.22209e-16)
(0.842924 0.00572501 9.87379e-17)
(0.857286 0.0156597 2.18048e-17)
(0.839018 0.00751621 -5.24638e-18)
(0.856347 0.0160275 -1.80939e-16)
(0.836458 0.0108048 -3.44472e-17)
(0.842825 0.0171794 1.56867e-16)
(0.838927 0.0120062 9.67888e-17)
(0.836221 0.0207775 -5.41813e-17)
(0.825629 0.0140324 8.13409e-17)
(0.829993 0.0231434 5.37624e-17)
(0.829949 0.0211786 4.47707e-17)
(0.85017 0.026971 -2.27964e-17)
(0.867388 0.0280209 -9.95886e-17)
(0.863266 0.029415 1.44509e-16)
(0.869515 0.0284128 7.57055e-18)
(0.863733 0.0312565 1.11311e-17)
(0.903941 0.0299333 -4.2243e-17)
(0.892327 0.00757227 -2.16537e-17)
(0.986848 0.152573 9.53867e-18)
(0.831184 0.0443121 3.41627e-17)
(0.819594 0.0201222 -2.06225e-16)
(0.799841 0.0113062 -1.79219e-18)
(0.819402 0.0287448 1.28633e-16)
(0.813329 0.0218961 1.46222e-16)
(0.825194 0.029801 -3.82807e-16)
(0.837312 0.0213733 -3.99044e-16)
(0.822961 0.027677 -1.75567e-16)
(0.833712 0.0165225 -1.80677e-16)
(0.803795 0.0234713 -6.50902e-17)
(0.825065 0.0142682 1.82291e-16)
(0.797485 0.0226202 4.82224e-17)
(0.827368 0.0125862 -2.95396e-16)
(0.804877 0.0206385 -5.5411e-16)
(0.830464 0.0103049 -2.49006e-16)
(0.815748 0.0192521 3.00682e-16)
(0.832538 0.00902591 3.013e-16)
(0.828428 0.0188053 1.4529e-16)
(0.845734 0.010871 2.86441e-16)
(0.831142 0.0199723 1.88304e-16)
(0.850353 0.0122327 -6.04134e-17)
(0.84453 0.0209521 6.59824e-17)
(0.860123 0.0143069 1.75856e-17)
(0.837587 0.0219131 -5.19917e-17)
(0.855703 0.0153465 -6.74928e-17)
(0.836528 0.0236529 -9.71912e-17)
(0.8427 0.0176548 6.51359e-18)
(0.837664 0.0269545 9.57192e-17)
(0.835399 0.019326 -7.32322e-17)
(0.825124 0.0288327 -1.70245e-16)
(0.825013 0.0215205 -3.22508e-17)
(0.83249 0.0274971 3.16627e-17)
(0.849173 0.0257216 -1.38592e-17)
(0.869027 0.0305468 -4.19189e-17)
(0.862326 0.0291772 7.95184e-17)
(0.870243 0.0312635 -7.4821e-17)
(0.863654 0.0307698 1.53139e-17)
(0.902642 0.0304981 -3.35992e-17)
(0.891586 0.00836976 -2.57967e-17)
(0.987589 0.160459 4.04231e-18)
(0.831129 0.000232706 -1.89047e-16)
(0.837243 0.0347087 -6.58666e-17)
(0.84811 0.0469977 -1.44426e-16)
(0.797279 0.0282269 7.85892e-17)
(0.828897 0.0308545 -3.37305e-16)
(0.833009 0.0241415 -1.98157e-16)
(0.840485 0.0211208 -1.63296e-16)
(0.841472 0.0221733 -9.01256e-17)
(0.822988 0.0151379 8.0225e-19)
(0.829385 0.0238353 7.83708e-17)
(0.808184 0.0124988 -1.76593e-17)
(0.816389 0.0225645 -2.3429e-16)
(0.79984 0.00726245 -1.05604e-16)
(0.81608 0.0206152 2.75957e-16)
(0.809852 0.00631051 6.66048e-16)
(0.823248 0.0194243 3.68852e-16)
(0.811484 0.00473867 -2.50864e-16)
(0.831663 0.0175976 -3.39667e-16)
(0.82256 0.00436128 -2.69431e-16)
(0.840493 0.0153846 -4.53647e-16)
(0.831823 0.0043034 -2.34615e-16)
(0.850881 0.0156933 2.04792e-16)
(0.843069 0.00635598 1.04057e-16)
(0.858238 0.0159546 2.43879e-17)
(0.839698 0.00843887 -1.89462e-18)
(0.856849 0.0167388 -1.78247e-16)
(0.837106 0.0113236 -4.88169e-17)
(0.843205 0.0182541 1.51924e-16)
(0.838982 0.012687 1.04433e-16)
(0.837618 0.0215316 -5.33531e-17)
(0.82616 0.0148412 7.34836e-17)
(0.830259 0.024239 5.28871e-17)
(0.829958 0.0211369 4.66782e-17)
(0.850045 0.0277958 -1.91327e-17)
(0.867503 0.0281219 -1.03497e-16)
(0.864508 0.0303492 1.48115e-16)
(0.86932 0.0284477 8.7566e-18)
(0.864632 0.0316358 1.22166e-17)
(0.903343 0.0297652 -4.13744e-17)
(0.890649 0.00927613 -2.10231e-17)
(0.98667 0.147921 1.28188e-17)
(0.832038 0.0426722 5.49419e-17)
(0.836382 0.0215119 -2.0986e-16)
(0.812115 0.0114265 -1.37942e-16)
(0.836438 0.0301047 -4.14768e-16)
(0.835349 0.0243161 -4.2813e-16)
(0.847468 0.0300723 -3.47572e-16)
(0.855915 0.023273 1.21836e-16)
(0.839231 0.0280816 3.25452e-16)
(0.849972 0.0177478 1.17842e-16)