/*--------------------------------*- C++ -*----------------------------------*\
| =========                 |                                                 |
| \\      /  F ield         | OpenFOAM: The Open Source CFD Toolbox           |
|  \\    /   O peration     | Version:  2206                                  |
|   \\  /    A nd           | Website:  www.openfoam.com                      |
|    \\/     M anipulation  |                                                 |
\*---------------------------------------------------------------------------*/
FoamFile
{
    version     2.0;
    format      ascii;
    arch        "LSB;label=32;scalar=64";
    class       volScalarField;
    location    "170";
    object      alphat;
}
// * * * * * * * * * * * * * * * * * * * * * * * * * * * * * * * * * * * * * //

dimensions      [1 -1 -1 0 0 0 0];

internalField   nonuniform List<scalar> 
93840
(
4.97748e-07
5.70216e-10
4.85617e-07
6.91711e-08
6.52088e-10
3.80208e-07
6.75916e-09
4.37574e-08
1.90801e-09
2.60504e-07
6.31733e-08
2.2003e-08
4.23637e-08
5.51345e-09
2.01563e-07
2.50802e-08
3.97166e-08
1.74755e-08
5.38703e-08
6.68899e-09
1.49746e-07
3.57096e-08
2.54354e-08
4.15059e-08
1.4724e-08
3.60081e-08
8.50319e-09
1.67498e-07
2.35063e-08
3.51843e-08
2.2913e-08
4.47371e-08
1.91439e-08
4.83697e-08
8.83781e-09
1.48627e-07
3.49391e-08
2.20767e-08
3.42843e-08
2.91248e-08
4.31378e-08
1.67814e-08
3.44208e-08
1.02989e-08
1.6994e-07
2.41546e-08
3.87294e-08
2.45671e-08
3.51935e-08
2.37984e-08
4.25276e-08
1.73641e-08
3.64866e-08
1.02822e-08
1.46757e-07
3.46311e-08
2.41708e-08
3.49016e-08
2.67136e-08
4.41557e-08
2.0903e-08
4.49619e-08
2.22743e-08
3.4865e-08
1.30426e-08
1.6577e-07
2.46854e-08
3.53801e-08
2.46762e-08
3.68876e-08
2.52452e-08
3.62425e-08
1.88281e-08
3.4866e-08
2.45031e-08
3.42759e-08
1.23708e-08
1.40337e-07
3.42396e-08
2.35576e-08
3.53011e-08
2.55768e-08
3.55489e-08
2.07848e-08
4.31333e-08
2.12996e-08
3.49231e-08
2.70242e-08
3.36299e-08
1.23824e-08
1.50443e-07
2.53172e-08
3.46153e-08
2.43016e-08
3.35244e-08
2.85393e-08
3.631e-08
2.46447e-08
4.25512e-08
2.9063e-08
3.94286e-08
2.45479e-08
3.40084e-08
1.17969e-08
1.40718e-07
3.41037e-08
2.50542e-08
3.07815e-08
2.81456e-08
3.10957e-08
2.19249e-08
3.77564e-08
2.13524e-08
3.8332e-08
2.65289e-08
3.51994e-08
2.50639e-08
3.5429e-08
1.23486e-08
1.47397e-07
2.59037e-08
3.38337e-08
2.6196e-08
3.11626e-08
2.60748e-08
3.54532e-08
2.37383e-08
3.33386e-08
3.18147e-08
3.63994e-08
2.91071e-08
3.65597e-08
2.23397e-08
3.38495e-08
1.16922e-08
1.38562e-07
3.4503e-08
2.54241e-08
3.09121e-08
2.53922e-08
3.18001e-08
2.17885e-08
3.377e-08
2.54704e-08
3.57039e-08
2.63863e-08
3.53582e-08
2.66843e-08
3.59834e-08
2.5665e-08
3.6286e-08
1.19582e-08
1.4339e-07
2.60623e-08
3.40094e-08
2.45601e-08
3.14037e-08
2.27815e-08
3.46864e-08
2.52304e-08
3.11525e-08
2.76024e-08
3.12532e-08
2.99659e-08
3.33156e-08
2.53946e-08
3.62135e-08
2.33899e-08
3.63273e-08
1.15467e-08
1.3695e-07
3.53948e-08
2.48819e-08
3.2283e-08
2.48589e-08
3.40787e-08
2.39224e-08
3.35156e-08
2.49831e-08
3.25409e-08
2.4995e-08
3.49556e-08
2.66586e-08
3.58028e-08
2.65194e-08
3.39726e-08
2.30762e-08
3.69713e-08
1.21803e-08
1.39965e-07
2.70882e-08
3.5981e-08
2.34282e-08
3.27181e-08
2.49302e-08
3.37679e-08
2.64066e-08
3.20802e-08
2.65048e-08
3.08481e-08
2.66608e-08
3.10816e-08
2.80244e-08
3.60566e-08
2.68796e-08
3.47773e-08
2.04922e-08
3.64878e-08
1.19108e-08
1.33618e-07
3.49474e-08
2.68315e-08
3.45692e-08
2.69691e-08
3.30534e-08
2.57345e-08
3.31964e-08
2.57547e-08
3.36339e-08
2.54199e-08
3.31001e-08
2.44633e-08
3.55537e-08
2.54421e-08
3.50739e-08
2.46446e-08
3.36801e-08
2.24807e-08
3.72742e-08
1.26748e-08
1.37244e-07
2.7095e-08
3.57336e-08
2.354e-08
3.16677e-08
2.54019e-08
3.26367e-08
2.59194e-08
3.25264e-08
2.62993e-08
3.07314e-08
2.65598e-08
3.21974e-08
2.67624e-08
3.10558e-08
2.88754e-08
3.39166e-08
2.81785e-08
3.48483e-08
2.09876e-08
3.77562e-08
1.21381e-08
1.33054e-07
3.5211e-08
2.75163e-08
3.52104e-08
2.78417e-08
3.20259e-08
2.44272e-08
3.30132e-08
2.62234e-08
3.32292e-08
2.57251e-08
3.30361e-08
2.61713e-08
3.22354e-08
2.51345e-08
3.61944e-08
2.67787e-08
3.48348e-08
2.53666e-08
3.42476e-08
2.42861e-08
3.78586e-08
1.30614e-08
1.36475e-07
2.71923e-08
3.5511e-08
2.68993e-08
3.04803e-08
2.74242e-08
3.43773e-08
2.89117e-08
3.42407e-08
2.61646e-08
3.26456e-08
2.73602e-08
3.15228e-08
2.65092e-08
3.11263e-08
2.72395e-08
3.16267e-08
2.98466e-08
3.4638e-08
2.50863e-08
3.40115e-08
2.4914e-08
3.77022e-08
1.29319e-08
1.34205e-07
3.52336e-08
2.82728e-08
3.45331e-08
2.78812e-08
3.17817e-08
2.34001e-08
3.27645e-08
2.55606e-08
3.28849e-08
2.74086e-08
3.31147e-08
2.72272e-08
3.22771e-08
2.52251e-08
3.40758e-08
2.45728e-08
3.2976e-08
2.69032e-08
3.46077e-08
2.66775e-08
3.27983e-08
2.52194e-08
3.67818e-08
1.36597e-08
1.41667e-07
2.67515e-08
3.51138e-08
2.78988e-08
3.24307e-08
2.77962e-08
3.51517e-08
3.01682e-08
3.52577e-08
2.93514e-08
3.40309e-08
2.74066e-08
3.26738e-08
2.71723e-08
3.18467e-08
2.62424e-08
3.16151e-08
2.77788e-08
3.23249e-08
2.73353e-08
3.5589e-08
2.91317e-08
3.37435e-08
2.37081e-08
3.60881e-08
1.2858e-08
1.22863e-07
3.59742e-08
2.66815e-08
3.32805e-08
2.48718e-08
3.14155e-08
2.49001e-08
3.34303e-08
2.71642e-08
3.23532e-08
2.65783e-08
3.28517e-08
2.74793e-08
3.36192e-08
2.64087e-08
3.29151e-08
2.59593e-08
3.35353e-08
2.56222e-08
3.23836e-08
2.6786e-08
3.481e-08
2.73302e-08
3.30448e-08
2.60034e-08
3.61853e-08
1.39112e-08
1.29984e-07
2.74952e-08
3.68216e-08
2.70258e-08
3.26011e-08
2.48243e-08
3.4695e-08
2.90238e-08
3.3134e-08
2.9974e-08
3.41922e-08
2.99874e-08
3.43181e-08
2.80845e-08
3.2724e-08
2.63072e-08
3.22496e-08
2.62496e-08
3.22596e-08
2.66624e-08
3.2784e-08
2.79872e-08
3.42591e-08
2.84691e-08
3.34257e-08
2.52495e-08
3.60381e-08
1.42585e-08
1.25633e-07
3.46022e-08
2.74187e-08
3.52371e-08
2.6868e-08
3.35883e-08
2.70785e-08
3.25789e-08
2.79256e-08
3.35221e-08
2.70438e-08
3.32348e-08
2.71038e-08
3.25504e-08
2.71476e-08
3.43397e-08
2.72361e-08
3.28298e-08
2.55762e-08
3.38761e-08
2.62577e-08
3.2775e-08
2.86986e-08
3.50058e-08
2.80171e-08
3.45264e-08
2.53975e-08
3.53106e-08
1.47932e-08
1.28294e-07
2.78005e-08
3.39296e-08
2.49522e-08
3.23814e-08
2.43915e-08
3.30439e-08
2.81163e-08
3.26456e-08
2.90915e-08
3.23874e-08
3.08456e-08
3.50617e-08
3.05846e-08
3.51649e-08
2.83624e-08
3.25966e-08
2.67308e-08
3.24429e-08
2.55569e-08
3.22436e-08
2.66012e-08
3.20933e-08
2.92583e-08
3.46408e-08
2.80344e-08
3.44537e-08
2.52666e-08
3.56917e-08
1.46705e-08
1.23775e-07
3.32585e-08
2.90827e-08
3.61282e-08
2.62344e-08
3.36836e-08
2.66818e-08
3.08116e-08
2.88154e-08
3.33738e-08
2.93835e-08
3.43739e-08
2.78372e-08
3.33954e-08
2.74988e-08
3.37833e-08
2.79324e-08
3.44147e-08
2.70995e-08
3.2916e-08
2.63382e-08
3.4472e-08
2.73357e-08
3.17437e-08
2.86102e-08
3.51348e-08
2.80253e-08
3.43502e-08
2.69913e-08
3.50202e-08
1.46164e-08
1.24922e-07
2.66523e-08
3.21881e-08
2.65081e-08
3.14567e-08
2.63001e-08
3.33321e-08
2.91995e-08
3.29774e-08
2.92334e-08
3.16824e-08
3.00893e-08
3.21751e-08
3.1431e-08
3.47395e-08
3.11257e-08
3.51947e-08
2.8582e-08
3.25916e-08
2.73337e-08
3.31407e-08
2.67996e-08
3.24001e-08
2.77812e-08
3.26948e-08
2.8766e-08
3.60345e-08
2.85907e-08
3.46283e-08
2.73834e-08
3.57915e-08
1.38175e-08
1.21597e-07
3.36677e-08
2.70774e-08
3.42571e-08
2.78635e-08
3.12524e-08
2.48848e-08
2.95969e-08
2.86097e-08
2.96026e-08
2.92734e-08
3.22933e-08
2.88708e-08
3.42415e-08
2.86978e-08
3.37516e-08
2.75988e-08
3.33078e-08
2.90216e-08
3.43626e-08
2.80638e-08
3.3781e-08
2.6839e-08
3.293e-08
2.69286e-08
3.15662e-08
2.80269e-08
3.57419e-08
2.96187e-08
3.38127e-08
2.66621e-08
3.55304e-08
1.4912e-08
1.22066e-07
2.66488e-08
3.2685e-08
2.83458e-08
2.97603e-08
2.79054e-08
3.30937e-08
3.07675e-08
3.13741e-08
3.09551e-08
3.20549e-08
3.06953e-08
3.20403e-08
3.08626e-08
3.22363e-08
3.15835e-08
3.45432e-08
3.12512e-08
3.45137e-08
2.94447e-08
3.28107e-08
2.75836e-08
3.29921e-08
2.73327e-08
3.29833e-08
2.85046e-08
3.23322e-08
2.82034e-08
3.64857e-08
3.05762e-08
3.45552e-08
2.63587e-08
3.56651e-08
1.43797e-08
1.20454e-07
3.4046e-08
2.63978e-08
3.31803e-08
2.71177e-08
3.06809e-08
2.54597e-08
2.94878e-08
2.87685e-08
2.89897e-08
2.91171e-08
3.01307e-08
3.03905e-08
3.18962e-08
2.9661e-08
3.33368e-08
2.92314e-08
3.30331e-08
2.81095e-08
3.34266e-08
2.91543e-08
3.48164e-08
2.75604e-08
3.33669e-08
2.71769e-08
3.23123e-08
2.72151e-08
3.2041e-08
2.73539e-08
3.58389e-08
3.03928e-08
3.39555e-08
2.70037e-08
3.51998e-08
1.57948e-08
1.19964e-07
2.67573e-08
3.32026e-08
2.78818e-08
3.02619e-08
2.67456e-08
3.13054e-08
3.01699e-08
2.96862e-08
3.07327e-08
3.01333e-08
3.1389e-08
3.19491e-08
3.08493e-08
3.17927e-08
3.15278e-08
3.21274e-08
3.14347e-08
3.41923e-08
3.16387e-08
3.47281e-08
2.92657e-08
3.29343e-08
2.7804e-08
3.29195e-08
2.76594e-08
3.24215e-08
2.77559e-08
3.31853e-08
2.87387e-08
3.52151e-08
3.03071e-08
3.47829e-08
2.6573e-08
3.49233e-08
1.52591e-08
1.17202e-07
3.4332e-08
2.65726e-08
3.32613e-08
2.60831e-08
3.04602e-08
2.7235e-08
2.99284e-08
2.95527e-08
2.86799e-08
2.85895e-08
2.93907e-08
2.88352e-08
3.03801e-08
3.01999e-08
3.13775e-08
2.99672e-08
3.25141e-08
2.93536e-08
3.33403e-08
2.85666e-08
3.30386e-08
2.91938e-08
3.39435e-08
2.87297e-08
3.32805e-08
2.72544e-08
3.21894e-08
2.70809e-08
3.27338e-08
3.02083e-08
3.53443e-08
3.03227e-08
3.40101e-08
2.78648e-08
3.45663e-08
1.6686e-08
1.18971e-07
2.76384e-08
3.29335e-08
2.71733e-08
3.13311e-08
2.51309e-08
3.04423e-08
2.97435e-08
2.87022e-08
2.94265e-08
2.88407e-08
3.00159e-08
3.05191e-08
3.11739e-08
3.1385e-08
3.07881e-08
3.20071e-08
3.20129e-08
3.16765e-08
3.13449e-08
3.36552e-08
3.14872e-08
3.45459e-08
3.0551e-08
3.32355e-08
2.86469e-08
3.24878e-08
2.77637e-08
3.29942e-08
2.74734e-08
3.21703e-08
2.93454e-08
3.43593e-08
3.00567e-08
3.57884e-08
2.72169e-08
3.45347e-08
1.52979e-08
1.15561e-07
3.49412e-08
2.74409e-08
3.18647e-08
2.59098e-08
3.17792e-08
2.90449e-08
3.01687e-08
3.09374e-08
2.9714e-08
2.96777e-08
2.84701e-08
2.93911e-08
2.98026e-08
2.89236e-08
3.00686e-08
3.03969e-08
3.12337e-08
3.01599e-08
3.25336e-08
2.971e-08
3.34596e-08
2.89955e-08
3.30923e-08
2.96716e-08
3.31635e-08
2.83098e-08
3.33629e-08
2.78674e-08
3.31736e-08
2.78606e-08
3.17925e-08
2.93471e-08
3.43661e-08
2.95238e-08
3.55796e-08
2.7491e-08
3.51484e-08
1.66425e-08
1.16001e-07
2.90554e-08
3.3837e-08
2.62981e-08
3.13931e-08
2.56271e-08
3.01237e-08
2.96333e-08
2.96047e-08
2.91392e-08
2.87783e-08
3.00283e-08
2.89588e-08
3.02996e-08
3.01356e-08
3.12605e-08
3.16996e-08
3.08695e-08
3.1407e-08
3.12722e-08
3.18208e-08
3.11823e-08
3.3137e-08
3.17413e-08
3.42878e-08
3.10497e-08
3.27966e-08
2.9473e-08
3.23067e-08
2.85156e-08
3.33898e-08
2.84411e-08
3.38173e-08
2.89527e-08
3.5676e-08
2.92822e-08
3.59397e-08
2.66846e-08
3.59734e-08
1.54874e-08
1.11679e-07
3.50843e-08
2.90519e-08
3.28416e-08
2.66731e-08
3.32186e-08
3.04963e-08
3.01839e-08
3.25379e-08
2.96679e-08
3.14262e-08
2.96812e-08
3.01638e-08
2.91604e-08
2.96777e-08
3.03735e-08
2.91891e-08
3.02051e-08
3.04769e-08
3.13444e-08
3.00351e-08
3.20732e-08
3.00039e-08
3.28412e-08
2.95478e-08
3.33839e-08
2.98139e-08
3.29029e-08
2.88093e-08
3.27845e-08
2.8e-08
3.31055e-08
2.74414e-08
3.22614e-08
2.89143e-08
3.45662e-08
2.90798e-08
3.52322e-08
2.62108e-08
3.50064e-08
1.67863e-08
1.12611e-07
2.98965e-08
3.39859e-08
2.53503e-08
3.12168e-08
2.61883e-08
2.98048e-08
3.01641e-08
2.98299e-08
2.96691e-08
2.90311e-08
2.96854e-08
2.94768e-08
3.00732e-08
2.92897e-08
3.00948e-08
3.02888e-08
3.14504e-08
3.12612e-08
3.06108e-08
3.12474e-08
3.07084e-08
3.13266e-08
3.142e-08
3.28272e-08
3.22847e-08
3.41704e-08
3.19928e-08
3.3267e-08
2.98186e-08
3.25142e-08
2.88116e-08
3.33233e-08
2.83642e-08
3.36639e-08
2.84663e-08
3.54568e-08
2.84984e-08
3.758e-08
2.59572e-08
3.59845e-08
1.54402e-08
1.10379e-07
3.49393e-08
2.95025e-08
3.45117e-08
2.85438e-08
3.41435e-08
3.14673e-08
3.03576e-08
3.24988e-08
2.94518e-08
3.22588e-08
2.97626e-08
3.13049e-08
3.00822e-08
3.0429e-08
3.07921e-08
2.97145e-08
2.99595e-08
2.93728e-08
3.00911e-08
3.04157e-08
3.11986e-08
2.97707e-08
3.2221e-08
3.02145e-08
3.30712e-08
2.9967e-08
3.34292e-08
3.00381e-08
3.32653e-08
2.93241e-08
3.27142e-08
2.79414e-08
3.29643e-08
2.76199e-08
3.28812e-08
2.78366e-08
3.53527e-08
2.82945e-08
3.8269e-08
2.57801e-08
3.62856e-08
1.69386e-08
1.10164e-07
3.00263e-08
3.49002e-08
2.68048e-08
3.13678e-08
2.66655e-08
2.94017e-08
3.019e-08
2.98968e-08
3.03207e-08
2.95791e-08
2.90251e-08
2.9923e-08
2.9472e-08
2.94465e-08
3.00033e-08
2.83949e-08
3.06962e-08
2.99278e-08
3.11528e-08
3.04591e-08
3.01051e-08
3.15879e-08
3.10112e-08
3.10526e-08
3.16362e-08
3.27506e-08
3.22857e-08
3.35078e-08
3.19114e-08
3.31835e-08
3.01946e-08
3.2692e-08
2.93489e-08
3.346e-08
2.89531e-08
3.31888e-08
2.83493e-08
3.61997e-08
2.8252e-08
3.78298e-08
2.57103e-08
3.71946e-08
1.58569e-08
1.08468e-07
3.44439e-08
2.9403e-08
3.48995e-08
2.93267e-08
3.37059e-08
3.20556e-08
3.02733e-08
3.20111e-08
2.99682e-08
3.11774e-08
3.01531e-08
3.19261e-08
2.99098e-08
3.15695e-08
2.97606e-08
3.05342e-08
3.03508e-08
2.97151e-08
3.02839e-08
2.97957e-08
3.02023e-08
3.01592e-08
3.09854e-08
3.01564e-08
3.1745e-08
3.02621e-08
3.28809e-08
3.04627e-08
3.34968e-08
3.05326e-08
3.31371e-08
2.90324e-08
3.29947e-08
2.81831e-08
3.28645e-08
2.75902e-08
3.32757e-08
2.70173e-08
3.63132e-08
2.769e-08
3.8466e-08
2.56889e-08
3.66211e-08
1.7216e-08
1.08139e-07
2.92247e-08
3.59817e-08
2.79082e-08
3.16707e-08
2.74506e-08
2.92865e-08
3.01858e-08
2.99234e-08
2.92124e-08
2.94257e-08
2.88858e-08
2.94043e-08
2.87038e-08
3.03203e-08
2.98804e-08
2.96107e-08
3.06803e-08
2.91805e-08
3.13957e-08
2.91581e-08
3.05231e-08
3.01486e-08
3.05184e-08
3.12745e-08
3.09164e-08
3.11434e-08
3.22247e-08
3.2936e-08
3.26424e-08
3.34691e-08
3.17419e-08
3.29566e-08
3.05026e-08
3.28465e-08
2.97724e-08
3.37429e-08
2.84528e-08
3.36679e-08
2.84194e-08
3.6065e-08
2.84663e-08
3.79188e-08
2.54852e-08
3.66671e-08
1.57783e-08
1.06748e-07
3.4733e-08
2.99043e-08
3.43922e-08
2.96598e-08
3.27297e-08
3.16391e-08
2.94549e-08
3.15338e-08
3.09829e-08
3.076e-08
2.92753e-08
3.09337e-08
2.97208e-08
3.17008e-08
3.01287e-08
3.0594e-08
3.06057e-08
3.01344e-08
3.05723e-08
2.90364e-08
3.02837e-08
2.98036e-08
2.98088e-08
3.0012e-08
3.06759e-08
3.01459e-08
3.15548e-08
3.0447e-08
3.28741e-08
3.02936e-08
3.36575e-08
3.048e-08
3.28248e-08
2.88401e-08
3.29676e-08
2.81785e-08
3.32389e-08
2.79805e-08
3.37655e-08
2.69629e-08
3.6468e-08
2.70693e-08
3.88186e-08
2.56251e-08
3.74982e-08
1.709e-08
1.06468e-07
2.87241e-08
3.57467e-08
2.82948e-08
3.08441e-08
2.79592e-08
2.89317e-08
3.0076e-08
2.96851e-08
3.00932e-08
2.89803e-08
2.85851e-08
2.94889e-08
2.9109e-08
2.92002e-08
2.96067e-08
3.04786e-08
3.01934e-08
3.00981e-08
3.04905e-08
2.95632e-08
3.1147e-08
2.91195e-08
3.05336e-08
2.99788e-08
3.03624e-08
3.09038e-08
3.08114e-08
3.06483e-08
3.19737e-08
3.23446e-08
3.26105e-08
3.34332e-08
3.252e-08
3.351e-08
3.07654e-08
3.26724e-08
2.99931e-08
3.39295e-08
2.79646e-08
3.40529e-08
2.79612e-08
3.73347e-08
2.77974e-08
3.97575e-08
2.62604e-08
3.80568e-08
1.59223e-08
1.04778e-07
3.45213e-08
3.07369e-08
3.39786e-08
2.86023e-08
3.15068e-08
3.07494e-08
2.88649e-08
3.09538e-08
2.98659e-08
2.99227e-08
2.94741e-08
3.13174e-08
2.92817e-08
3.12951e-08
2.96771e-08
3.15629e-08
2.98561e-08
3.08532e-08
3.0026e-08
3.03311e-08
3.03296e-08
2.98523e-08
3.03228e-08
2.99549e-08
2.98899e-08
3.00914e-08
3.06898e-08
3.01869e-08
3.16346e-08
3.05259e-08
3.2476e-08
3.08172e-08
3.3391e-08
2.99842e-08
3.24011e-08
2.94018e-08
3.30798e-08
2.83298e-08
3.32784e-08
2.83374e-08
3.40156e-08
2.71443e-08
3.72134e-08
2.73897e-08
3.96024e-08
2.51087e-08
3.72853e-08
1.75255e-08
1.03412e-07
2.873e-08
3.42502e-08
2.74029e-08
3.04464e-08
2.90558e-08
2.85783e-08
3.04851e-08
2.96391e-08
3.11824e-08
2.9419e-08
3.03541e-08
2.92272e-08
2.86774e-08
2.93149e-08
2.92283e-08
2.97262e-08
2.91002e-08
3.00712e-08
3.02033e-08
3.02451e-08
3.01803e-08
2.96502e-08
3.00197e-08
2.95253e-08
3.1048e-08
2.97237e-08
2.99703e-08
3.06986e-08
3.0807e-08
3.06363e-08
3.17178e-08
3.19706e-08
3.27894e-08
3.33971e-08
3.24314e-08
3.31048e-08
3.07892e-08
3.2915e-08
3.00707e-08
3.37735e-08
2.73964e-08
3.42163e-08
2.78491e-08
3.6817e-08
2.82831e-08
3.89163e-08
2.52713e-08
3.79337e-08
1.64106e-08
1.0186e-07
3.47501e-08
3.10523e-08
3.39686e-08
2.71634e-08
3.11295e-08
2.95902e-08
2.85289e-08
3.0285e-08
3.01642e-08
2.9882e-08
2.96673e-08
3.04413e-08
2.9948e-08
3.11028e-08
2.92669e-08
3.06036e-08
3.05167e-08
3.11235e-08
2.99648e-08
3.07097e-08
3.02608e-08
3.05617e-08
3.01423e-08
2.9874e-08
3.0289e-08
2.9357e-08
2.98689e-08
3.02952e-08
3.06695e-08
3.02385e-08
3.14979e-08
3.04729e-08
3.20426e-08
3.11731e-08
3.32316e-08
3.0305e-08
3.27771e-08
2.94873e-08
3.29545e-08
2.89572e-08
3.35241e-08
2.84898e-08
3.35183e-08
2.74109e-08
3.6294e-08
2.88447e-08
3.98638e-08
2.55816e-08
3.79074e-08
1.7818e-08
1.01763e-07
2.88988e-08
3.30701e-08
2.81445e-08
3.12886e-08
3.00452e-08
2.76655e-08
3.06183e-08
2.95657e-08
3.11015e-08
2.99989e-08
3.08523e-08
2.93129e-08
2.96994e-08
2.93353e-08
2.87965e-08
3.01625e-08
2.90794e-08
2.99657e-08
2.90975e-08
3.00407e-08
2.98553e-08
3.00214e-08
3.03073e-08
2.95319e-08
3.07598e-08
2.92203e-08
3.0993e-08
2.9905e-08
3.03623e-08
3.04186e-08
3.10021e-08
3.07733e-08
3.15297e-08
3.21822e-08
3.24046e-08
3.30324e-08
3.17279e-08
3.30761e-08
3.10658e-08
3.29428e-08
3.0031e-08
3.33258e-08
2.88187e-08
3.40199e-08
2.80748e-08
3.62632e-08
2.82366e-08
4.01509e-08
2.4935e-08
3.80458e-08
1.66869e-08
1.00094e-07
3.41083e-08
3.06415e-08
3.33582e-08
2.64771e-08
3.10735e-08
2.86658e-08
2.92117e-08
3.02062e-08
3.03099e-08
3.01543e-08
2.96772e-08
3.01243e-08
2.9438e-08
3.0228e-08
2.97651e-08
3.0624e-08
2.91008e-08
3.09402e-08
2.98502e-08
3.1146e-08
3.01427e-08
3.09244e-08
3.04828e-08
3.05515e-08
2.98837e-08
3.00029e-08
3.01568e-08
2.94581e-08
2.95408e-08
3.02596e-08
3.07077e-08
3.05769e-08
3.17142e-08
3.06362e-08
3.23007e-08
3.10955e-08
3.31477e-08
3.07138e-08
3.28621e-08
2.96784e-08
3.29244e-08
2.91232e-08
3.28697e-08
2.83681e-08
3.35725e-08
2.86601e-08
3.61468e-08
2.83096e-08
4.03075e-08
2.53515e-08
3.78894e-08
1.79477e-08
9.97646e-08
2.8893e-08
3.23235e-08
2.81609e-08
3.20153e-08
3.05172e-08
2.67139e-08
3.07712e-08
2.92893e-08
3.08356e-08
2.99825e-08
3.1469e-08
3.02379e-08
3.05724e-08
2.98114e-08
2.95665e-08
2.92833e-08
2.89429e-08
3.00206e-08
2.95606e-08
2.99387e-08
2.96584e-08
3.04948e-08
2.99128e-08
2.95246e-08
3.01894e-08
2.96353e-08
3.02445e-08
2.89719e-08
3.02577e-08
2.96861e-08
3.06336e-08
3.02767e-08
3.09285e-08
3.0877e-08
3.21657e-08
3.19887e-08
3.23877e-08
3.29322e-08
3.22842e-08
3.33377e-08
3.1177e-08
3.3039e-08
3.07299e-08
3.34238e-08
2.9424e-08
3.30719e-08
2.97344e-08
3.64857e-08
2.8072e-08
3.90914e-08
2.56964e-08
3.8672e-08
1.71218e-08
9.82096e-08
3.41141e-08
3.03081e-08
3.37594e-08
2.67676e-08
3.01942e-08
2.80501e-08
3.02547e-08
3.02806e-08
3.08722e-08
3.07913e-08
3.07566e-08
3.04361e-08
3.0646e-08
3.04914e-08
3.01185e-08
3.0578e-08
2.93866e-08
3.12847e-08
2.92606e-08
3.02138e-08
3.02522e-08
3.08192e-08
3.00102e-08
3.11664e-08
3.04424e-08
3.07025e-08
3.01225e-08
3.02192e-08
2.99922e-08
3.00529e-08
2.97301e-08
3.02961e-08
3.05871e-08
3.08292e-08
3.11906e-08
3.09477e-08
3.21104e-08
3.14348e-08
3.29153e-08
3.09155e-08
3.29871e-08
3.02241e-08
3.24881e-08
2.97782e-08
3.30912e-08
2.92379e-08
3.26844e-08
2.79743e-08
3.60694e-08
2.81663e-08
4.1808e-08
2.52275e-08
3.81732e-08
1.83537e-08
9.90449e-08
2.90898e-08
3.16786e-08
2.86636e-08
3.20325e-08
3.05209e-08
2.65103e-08
3.10403e-08
2.90756e-08
3.05338e-08
3.00921e-08
3.11675e-08
3.0682e-08
3.10483e-08
2.99064e-08
3.05162e-08
3.01036e-08
3.00331e-08
2.92116e-08
2.88228e-08
2.99737e-08
2.96614e-08
2.98733e-08
2.98667e-08
3.01221e-08
3.0608e-08
2.99841e-08
2.99303e-08
2.93574e-08
3.05032e-08
2.97403e-08
3.03222e-08
2.9784e-08
3.04838e-08
3.06193e-08
3.08311e-08
3.07634e-08
3.22377e-08
3.17952e-08
3.2277e-08
3.30581e-08
3.23893e-08
3.29142e-08
3.11991e-08
3.29719e-08
3.059e-08
3.29605e-08
2.99626e-08
3.33793e-08
2.97035e-08
3.66864e-08
2.82088e-08
3.93004e-08
2.594e-08
3.90053e-08
1.69297e-08
9.68951e-08
3.38323e-08
2.92171e-08
3.20439e-08
2.79839e-08
3.04613e-08
2.87806e-08
3.11645e-08
3.01791e-08
3.10698e-08
3.10072e-08
3.17042e-08
3.06775e-08
3.04936e-08
3.04083e-08
3.06325e-08
3.01061e-08
3.00699e-08
3.11459e-08
3.00203e-08
3.05948e-08
2.97569e-08
3.06008e-08
2.92779e-08
3.15365e-08
2.93975e-08
3.07097e-08
3.04727e-08
3.03161e-08
2.98441e-08
3.00609e-08
2.93115e-08
3.03605e-08
2.93039e-08
3.02736e-08
3.00468e-08
3.08173e-08
3.15759e-08
3.09756e-08
3.22772e-08
3.1407e-08
3.28136e-08
3.09162e-08
3.27973e-08
3.0588e-08
3.28628e-08
2.99418e-08
3.26316e-08
2.88678e-08
3.28637e-08
2.76665e-08
3.64383e-08
2.7597e-08
4.35061e-08
2.51508e-08
3.85631e-08
1.8523e-08
9.65703e-08
2.98355e-08
3.23932e-08
2.77833e-08
3.20915e-08
2.97697e-08
2.59924e-08
3.04594e-08
2.83345e-08
3.01623e-08
2.94864e-08
3.08975e-08
3.03083e-08
3.05433e-08
3.04145e-08
3.04489e-08
3.01128e-08
3.03897e-08
2.89217e-08
2.98962e-08
2.94608e-08
2.92594e-08
2.93726e-08
2.97666e-08
3.02042e-08
3.0171e-08
3.04889e-08
3.1486e-08
2.968e-08
3.01192e-08
2.98782e-08
3.01499e-08
2.96159e-08
3.05443e-08
2.94675e-08
3.05222e-08
3.03428e-08
3.10818e-08
3.08944e-08
3.17985e-08
3.20997e-08
3.26474e-08
3.27828e-08
3.24787e-08
3.28238e-08
3.18037e-08
3.24735e-08
3.09363e-08
3.33171e-08
3.0029e-08
3.34609e-08
2.95019e-08
3.72836e-08
2.84833e-08
3.82289e-08
2.52904e-08
3.90423e-08
1.77238e-08
9.57997e-08
3.36032e-08
2.93147e-08
3.24216e-08
2.93223e-08
3.02822e-08
2.97775e-08
3.17981e-08
3.00861e-08
3.06497e-08
3.09027e-08
3.2098e-08
3.02211e-08
3.16112e-08
3.02435e-08
3.06633e-08
3.00397e-08
2.98407e-08
3.01244e-08
3.06079e-08
3.07607e-08
2.99255e-08
3.06214e-08
2.92125e-08
2.99474e-08
3.00717e-08
3.14128e-08
2.95389e-08
3.05182e-08
3.077e-08
3.05264e-08
3.00047e-08
2.99383e-08
2.95155e-08
3.04772e-08
2.98579e-08
3.04225e-08
3.01288e-08
3.04471e-08
3.12073e-08
3.10758e-08
3.21522e-08
3.12841e-08
3.30374e-08
3.12562e-08
3.27843e-08
3.05666e-08
3.3004e-08
2.98368e-08
3.27792e-08
2.91678e-08
3.27004e-08
2.83922e-08
3.70226e-08
2.81431e-08
4.25629e-08
2.6485e-08
3.83465e-08
1.87704e-08
9.5266e-08
3.01194e-08
3.18107e-08
2.80417e-08
3.16077e-08
2.93177e-08
2.63206e-08
3.04243e-08
2.77083e-08
2.96902e-08
2.90262e-08
3.00449e-08
2.99465e-08
3.04492e-08
3.07637e-08
3.01949e-08
2.98684e-08
3.04543e-08
2.99889e-08
3.01865e-08
2.91867e-08
2.96907e-08
2.97269e-08
2.98516e-08
3.00785e-08
2.94053e-08
2.99354e-08
3.04339e-08
3.05944e-08
3.12004e-08
2.98815e-08
2.99217e-08
2.95607e-08
3.03667e-08
2.94037e-08
3.05817e-08
2.97236e-08
3.08539e-08
3.0169e-08
3.10004e-08
3.13169e-08
3.19314e-08
3.21754e-08
3.26552e-08
3.25494e-08
3.23276e-08
3.25551e-08
3.17376e-08
3.26322e-08
3.10141e-08
3.36908e-08
3.0136e-08
3.33702e-08
2.93728e-08
3.75321e-08
2.96229e-08
3.81892e-08
2.58542e-08
3.97603e-08
1.73088e-08
9.32041e-08
3.35867e-08
2.94843e-08
3.14923e-08
3.02921e-08
3.06577e-08
3.05546e-08
3.16662e-08
2.93637e-08
3.045e-08
3.02428e-08
3.23526e-08
3.04172e-08
3.14913e-08
3.07147e-08
3.10957e-08
3.03351e-08
3.07918e-08
3.03021e-08
3.02395e-08
3.03843e-08
2.98237e-08
3.08057e-08
2.98708e-08
3.01295e-08
2.92904e-08
3.09106e-08
3.01725e-08
3.1391e-08
2.95912e-08
3.07684e-08
3.1626e-08
3.0886e-08
3.01419e-08
2.98099e-08
2.93486e-08
3.03627e-08
2.95787e-08
3.03118e-08
3.0088e-08
3.03792e-08
3.09961e-08
3.10778e-08
3.18538e-08
3.1286e-08
3.29739e-08
3.17476e-08
3.26843e-08
3.03951e-08
3.28383e-08
2.98798e-08
3.27986e-08
2.90399e-08
3.27187e-08
2.86882e-08
3.69061e-08
2.83732e-08
4.26595e-08
2.62004e-08
3.83915e-08
1.95356e-08
9.27329e-08
3.02631e-08
3.21463e-08
2.81183e-08
3.21712e-08
2.93909e-08
2.69903e-08
3.02229e-08
2.71421e-08
2.96273e-08
2.93735e-08
2.905e-08
2.9815e-08
3.04019e-08
3.0874e-08
3.05909e-08
3.05053e-08
2.99247e-08
2.97125e-08
3.01457e-08
2.96951e-08
2.98529e-08
2.98304e-08
2.90147e-08
2.96751e-08
2.95629e-08
3.01237e-08
2.98752e-08
3.04379e-08
3.03496e-08
3.01383e-08
3.10414e-08
2.9593e-08
3.00377e-08
2.92448e-08
3.04993e-08
2.9378e-08
3.02022e-08
2.94863e-08
3.09274e-08
3.01546e-08
3.10505e-08
3.11571e-08
3.19287e-08
3.20312e-08
3.27607e-08
3.2712e-08
3.22125e-08
3.24834e-08
3.20276e-08
3.30178e-08
3.07542e-08
3.38175e-08
2.99227e-08
3.36752e-08
2.91373e-08
3.62178e-08
3.04154e-08
3.82883e-08
2.67296e-08
3.93939e-08
1.87817e-08
9.16565e-08
3.35671e-08
3.01656e-08
3.17523e-08
3.15928e-08
3.06452e-08
3.05285e-08
3.09321e-08
2.8644e-08
3.00511e-08
2.97495e-08
3.13546e-08
3.02581e-08
3.20878e-08
3.00223e-08
3.17004e-08
3.0945e-08
3.1468e-08
3.02791e-08
3.06368e-08
3.05537e-08
3.07047e-08
3.00183e-08
3.00088e-08
3.03322e-08
2.99666e-08
3.04716e-08
2.94506e-08
3.0856e-08
2.96952e-08
3.1565e-08
3.04083e-08
3.09381e-08
3.14264e-08
3.07645e-08
3.06809e-08
2.98814e-08
2.9842e-08
3.04851e-08
2.96444e-08
2.98254e-08
2.98252e-08
3.06229e-08
3.12843e-08
3.09623e-08
3.19853e-08
3.16478e-08
3.28243e-08
3.1727e-08
3.25763e-08
3.05297e-08
3.2724e-08
3.04118e-08
3.32945e-08
2.92598e-08
3.2686e-08
2.92894e-08
3.69727e-08
2.84755e-08
4.16876e-08
2.59871e-08
3.79227e-08
1.97067e-08
9.17133e-08
3.0189e-08
3.22774e-08
2.74788e-08
3.21133e-08
2.90375e-08
2.75768e-08
3.00103e-08
2.70007e-08
2.96215e-08
2.93676e-08
2.90214e-08
3.0119e-08
2.98186e-08
3.06782e-08
3.11097e-08
3.09191e-08
3.00825e-08
3.02488e-08
2.9958e-08
2.98178e-08
2.99215e-08
2.97606e-08
3.00135e-08
2.93191e-08
2.94306e-08
2.93289e-08
2.94806e-08
3.01013e-08
2.97774e-08
3.04274e-08
3.03208e-08
3.06735e-08
3.13298e-08
3.00591e-08
3.04402e-08
2.98182e-08
3.0576e-08
2.9811e-08
3.04413e-08
2.95121e-08
3.09587e-08
3.01443e-08
3.07133e-08
3.0842e-08
3.18422e-08
3.20124e-08
3.27925e-08
3.25757e-08
3.24834e-08
3.23555e-08
3.23094e-08
3.28363e-08
3.11315e-08
3.36967e-08
3.00764e-08
3.39394e-08
2.93434e-08
3.67409e-08
3.05164e-08
3.81854e-08
2.77135e-08
4.05684e-08
1.79854e-08
8.92342e-08
3.34741e-08
3.02362e-08
3.19299e-08
3.23359e-08
3.07029e-08
3.02796e-08
3.03569e-08
2.82135e-08
2.94971e-08
2.94322e-08
3.04814e-08
2.99983e-08
3.14158e-08
3.0833e-08
3.18724e-08
3.05725e-08
3.16101e-08
3.08492e-08
3.11915e-08
3.07705e-08
3.02777e-08
3.05591e-08
3.00902e-08
3.01705e-08
2.99054e-08
3.00708e-08
2.99077e-08
3.02472e-08
2.96315e-08
3.02103e-08
2.96692e-08
3.13445e-08
3.06121e-08
3.1102e-08
3.11765e-08
3.06209e-08
3.02909e-08
2.95666e-08
2.97446e-08
2.99998e-08
2.95298e-08
2.96557e-08
3.00783e-08
3.05703e-08
3.12753e-08
3.10647e-08
3.20213e-08
3.20298e-08
3.26023e-08
3.21114e-08
3.26216e-08
3.08875e-08
3.29903e-08
3.06404e-08
3.32961e-08
2.94507e-08
3.28119e-08
2.89977e-08
3.67035e-08
2.9358e-08
4.16211e-08
2.58266e-08
3.82019e-08
2.04795e-08
8.92558e-08
3.03592e-08
3.255e-08
2.76701e-08
3.22199e-08
2.89831e-08
2.82313e-08
2.99106e-08
2.70289e-08
2.94119e-08
2.97911e-08
2.90619e-08
2.98041e-08
2.91107e-08
3.04615e-08
2.93062e-08
3.05752e-08
3.05113e-08
3.129e-08
3.01417e-08
3.00451e-08
2.9982e-08
2.96953e-08
3.01671e-08
2.98283e-08
2.98264e-08
2.96946e-08
2.94116e-08
2.95872e-08
2.95356e-08
3.0064e-08
3.02477e-08
3.04157e-08
3.01503e-08
3.08372e-08
3.14031e-08
3.02678e-08
3.08033e-08
2.99319e-08
3.07337e-08
2.914e-08
3.11075e-08
2.9511e-08
3.11024e-08
2.98401e-08
3.10282e-08
3.05772e-08
3.18813e-08
3.20382e-08
3.29211e-08
3.24823e-08
3.2446e-08
3.22087e-08
3.18891e-08
3.31258e-08
3.1633e-08
3.35342e-08
3.07832e-08
3.35603e-08
3.01578e-08
3.66542e-08
3.11497e-08
4.00186e-08
2.95283e-08
4.03679e-08
1.94755e-08
8.742e-08
3.3479e-08
3.05832e-08
3.2117e-08
3.20217e-08
3.07899e-08
3.0318e-08
2.94854e-08
2.7647e-08
2.8934e-08
2.91241e-08
3.00759e-08
2.91558e-08
3.08834e-08
2.97701e-08
3.1068e-08
2.99678e-08
3.16709e-08
3.05358e-08
3.06949e-08
3.07119e-08
3.04703e-08
3.06196e-08
3.05241e-08
3.00145e-08
3.0268e-08
2.99532e-08
3.00068e-08
3.00073e-08
2.96877e-08
3.03276e-08
2.94909e-08
3.02934e-08
2.93476e-08
3.12252e-08
3.02492e-08
3.07936e-08
3.10789e-08
3.08234e-08
3.02123e-08
2.99869e-08
3.02767e-08
2.94057e-08
2.99041e-08
2.98918e-08
2.98029e-08
3.06466e-08
3.11699e-08
3.14178e-08
3.22665e-08
3.21802e-08
3.28258e-08
3.21401e-08
3.29925e-08
3.05676e-08
3.28511e-08
3.08414e-08
3.31263e-08
2.98864e-08
3.29294e-08
2.93117e-08
3.69248e-08
2.91433e-08
4.06874e-08
2.46206e-08
3.81373e-08
2.11577e-08
8.66374e-08
3.03037e-08
3.23289e-08
2.82199e-08
3.22933e-08
2.9584e-08
2.84955e-08
2.95545e-08
2.72729e-08
2.94333e-08
3.04124e-08
2.90342e-08
2.99933e-08
2.90148e-08
2.99021e-08
2.88087e-08
3.07953e-08
3.02029e-08
3.07777e-08
3.08614e-08
3.07078e-08
3.01156e-08
3.059e-08
2.99199e-08
3.01056e-08
2.99641e-08
2.96866e-08
3.01942e-08
2.97561e-08
2.96944e-08
2.95435e-08
2.90501e-08
2.98564e-08
2.97756e-08
3.04439e-08
3.01866e-08
3.11517e-08
3.1491e-08
3.01542e-08
3.10577e-08
2.96615e-08
3.06053e-08
2.9063e-08
3.08231e-08
2.94706e-08
3.07022e-08
2.99106e-08
3.05885e-08
3.05463e-08
3.16331e-08
3.20415e-08
3.24949e-08
3.25422e-08
3.26374e-08
3.24833e-08
3.18644e-08
3.31098e-08
3.17035e-08
3.34216e-08
3.09849e-08
3.35386e-08
3.03415e-08
3.63956e-08
3.29313e-08
3.97806e-08
3.00059e-08
4.07588e-08
1.92191e-08
8.51359e-08
3.32345e-08
3.05819e-08
3.1869e-08
3.20598e-08
3.02343e-08
3.01761e-08
2.89054e-08
2.77497e-08
2.86182e-08
2.91007e-08
2.94211e-08
2.90465e-08
3.0061e-08
2.93167e-08
3.05152e-08
3.00714e-08
3.07133e-08
3.04344e-08
3.1235e-08
3.02048e-08
3.16025e-08
3.02245e-08
3.07376e-08
3.01446e-08
3.01225e-08
3.02998e-08
3.04539e-08
2.96939e-08
2.98179e-08
2.98802e-08
2.96602e-08
2.98819e-08
2.9714e-08
3.03447e-08
2.92359e-08
3.12168e-08
3.03172e-08
3.07743e-08
3.11635e-08
3.10193e-08
3.00292e-08
2.98964e-08
3.0097e-08
2.95153e-08
2.97664e-08
3.00924e-08
2.9957e-08
3.06146e-08
3.0941e-08
3.14593e-08
3.22257e-08
3.25442e-08
3.26332e-08
3.2364e-08
3.26634e-08
3.08155e-08
3.31538e-08
3.07583e-08
3.34853e-08
3.00241e-08
3.29586e-08
2.974e-08
3.6547e-08
2.99015e-08
4.23677e-08
2.49209e-08
3.92517e-08
2.07762e-08
8.53546e-08
3.03558e-08
3.25364e-08
2.86416e-08
3.13919e-08
3.03413e-08
2.89137e-08
2.93028e-08
2.76299e-08
2.8966e-08
3.05739e-08
2.922e-08
3.07062e-08
2.9203e-08
2.95704e-08
2.91097e-08
2.97113e-08
2.9945e-08
3.05717e-08
3.0373e-08
3.08295e-08
3.07099e-08
3.0521e-08
3.01094e-08
3.0081e-08
3.01992e-08
3.02786e-08
2.97064e-08
2.96661e-08
2.98188e-08
2.98239e-08
2.99676e-08