/*--------------------------------*- C++ -*----------------------------------*\
| =========                 |                                                 |
| \\      /  F ield         | OpenFOAM: The Open Source CFD Toolbox           |
|  \\    /   O peration     | Version:  2206                                  |
|   \\  /    A nd           | Website:  www.openfoam.com                      |
|    \\/     M anipulation  |                                                 |
\*---------------------------------------------------------------------------*/
FoamFile
{
    version     2.0;
    format      ascii;
    arch        "LSB;label=32;scalar=64";
    class       volScalarField;
    location    "170";
    object      ducSensor;
}
// * * * * * * * * * * * * * * * * * * * * * * * * * * * * * * * * * * * * * //

dimensions      [0 0 0 0 0 0 0];

internalField   nonuniform List<scalar> 
93840
(
0.44303
0
0.427184
0.00893657
0
0.41959
0
0.386468
0
0.39692
0.371185
0
0.3586
0
0.39899
0
0
0
0.011487
0
0.438884
0.00156881
0.023416
0.00290454
0
0.0369387
0
0.395289
0
0
0.0143172
0.268615
0.0155218
0
0
0.409614
0.0142206
0
0
0
0
0.0103856
0.143164
0
0.39291
0.010899
0.0323832
0.0119133
0
0.0191528
0.00406996
0
0.25196
0
0.378716
0
0.0219271
0.0162591
0.0223618
0
0.0592196
0.022814
0
0.154012
0
0.417143
0.00181971
0
0
0
0
0
0
0.156099
0
0
0
0.405077
0.00546539
0.00122582
0.0703728
0
0.139038
0.00537001
0.0144463
0
0
0
0.0417772
0
0.421519
0.00397077
0.00758919
0
0.017161
0
0.0161485
0
0.0299059
0
0.0871957
0.0105951
0.0740046
0
0.4177
0.00335782
0
0.0271635
0.00359742
0.0135095
0.061955
0.0212428
0
0.18587
0
0.0934288
0.0878065
0
0
0.419018
0.0135663
0.0175097
0
0
0.0924261
0
0
0.0897413
0
0.107617
0.0106464
0
0.0121807
2.40546e-05
0
0.415424
0
0.0407393
0
0.0400417
0
0
0.0506003
0
0
0
0.00996192
0.0893515
0
0
0.0291244
0
0.420952
0
0
0.0677679
0
0
0.0038387
0
0
0.0395077
0.0119578
0.0583974
0
0.0159175
0.0466218
0.00364517
0.0339822
0
0.419253
0
0.00215143
0
0
0.00286415
0
0.00757463
0.0305822
0
0.0169466
0
0.0412007
0
0
0.0587211
0.0652655
0.134255
0
0.415837
0
0
0.0295753
0.0147252
0
0.0153217
0
0
0.00709608
0
0
0.037584
0.00202815
0.0139522
0.0283645
0.0693186
0
0.247394
0
0.408755
0.00705887
0
0
0
0.015493
0.0208796
0.0045043
0.00238598
0
0.019706
0.00741076
0
0
0
0.00251503
0.00405483
0
0
0.250028
0
0.418241
0.00455325
0.0113443
0
0.0401963
0.0112508
0
0
0
0.0291619
0
0
0.0266242
0
0.0235223
0
0.0230767
0
0.0212029
0
0.225249
0
0.416174
0.00190435
0
0.068952
0
0.0365679
0.0746847
0.0259331
0.0240772
0
0
0
0
0.0479691
0
0.00802001
0
0.141558
0.0632236
0.0787993
0
0.223472
0
0.419961
0.0154734
0.0367226
0
0.017866
0
0
0
0
0
0
0
0.12036
0.0396873
0
0.0851503
0.017774
0
0
0.0139553
0.153723
0
0.241202
0
0.418334
0
0.0258757
0
0.0955019
0.0102096
0.00630622
0
0.0421974
0.029101
0
0
0
0
0.0603779
0
0
0.172854
0.0726915
0
0
0.110399
0
0.227501
0
0.41964
0
0
0.0380704
0
0.0350192
0
0
0.0154304
0
0
0
0
0.094524
0
0
0.018357
0
0.0682075
0.100011
0.00140916
0
0.0157809
0.0347663
0.248369
0
0.413095
0
0.0282396
0.0395333
0
0
0
0
0
0.00319277
0.0368362
0.0270441
0.0103369
0.026379
0.0419609
0
0
0
0.0652344
0
0
0.0697839
0.0804422
0.0238786
0.0604051
0.218475
0
0.412263
0
0
0.0750158
0.0447401
0.0773248
0.0115608
0.0152843
0.0172633
0
0
0
0
0
0
0
0.00213331
0.0711743
0
0.0943508
0
0
0.000779321
0.0317086
0
0
0.184337
0
0.398754
0.0357719
0
0
0.0285047
0
0
0.0109593
0
0
0
0
0.000234421
0
0.0449623
0.00631305
0
0
0.0287849
0
0.00859866
0.116088
0
0.0104779
0.0834652
0
0
0.170692
0
0.41057
0.0204401
0.0719399
0.0132302
0
0
0.0201782
0
0
0
0
0
0
0
0
0
0
0.0203362
0
0
0
0
0.119965
0.0538152
0
0.01656
0.0944206
0
0.123992
0
0.419424
0.0059165
0
0.0100529
0
0.0365927
0.0517026
0.0289046
0
0.0563064
0
0.0183865
0
0
0
0.0124829
0.0407483
0.00976299
0
0
0
0
0
0
0.0215006
0
0
0.0461042
0
0
0
0.42722
0.0339793
0
0
0.0676168
0
0
0
0
0
0
0.0111065
0
0
0
0
0
0
0
0
0
0
0.0436051
0
0
0.0518323
0
0
0.0529017
0.0923164
0
0
0.427666
0
0.063038
0.0325398
0
0.0415869
0.0174801
0.0184802
0
0.0601966
0
0.0445212
0
0
0
0.0155845
0.00316065
0.0450294
0
0.0115697
0
0.0257554
0
0
0
0.0999986
0.038647
0
0
0.0210242
0.000669785
0.242327
0
0.419973
0.00532922
0
0
0.0289176
0
0
0
0.0351387
0
0
0
0
0
0.0463995
0
0.0618654
0
0
0
0
0
0
0
0.046044
0.0528859
0
0.103749
0.0740123
0
0.0463795
0
0.254361
0
0.413112
0
0.00309056
0.000243049
0.0604434
0
0
0
0
0.0190782
0.00132671
0.0414287
0
0.0312472
0
0.0622041
0
0.022742
0
0.0136574
0.00252571
0.0248878
0
0.0129061
0
0.0429018
0.0471062
0
0
0.144175
0
0
0.0398155
0.232891
0
0.406905
0
0.00224151
0.0292558
0
0.0567022
0.0191565
0.0238055
0.0456718
0.00739577
0.0234995
0.00143847
0
0
0.0255096
0
0.0375464
0
0.0402452
0
0
0
0.0486399
0
0.0453637
0.0113065
0
0.0362332
0
0
0.119297
0.0438112
0
0
0.201746
0
0.398659
0
0.00382291
0.0155144
0.0398503
0
0
0.00777907
0
0
0.033608
0
0.0177381
0.0403191
0.009491
0
0
0.0881298
0
0
0
0.0277882
0
0.0558892
0
0.0260748
0.0472051
0
0.0562587
0.119372
0
0.069734
0.0760817
0
0
0.107254
0
0.40002
0
0
0.0410253
0
0.0374326
0.00986221
0.0226629
0.0245294
0.0225087
0.0590258
0
0.0298571
0
0
0
0
0.0343277
0.0118847
0.0172861
0.0713763
0
0
0
0.074351
0
0.00890371
0
0
0
0.18178
0.0117823
0.0682203
0.100127
0
0
0
0
0.40327
0
0
0.0314834
0.0102973
0
0
0.0215586
0
0
0
0
0
0
0.0229596
0.00905776
0
0.051649
0.0508635
0.0107637
0
0.00952741
0
0.0226878
0
0.0437495
0
0.0101951
0
0
0
0
0.0658622
0
0.0963677
0
0
0
0
0.408729
0
0.00317372
0.0797636
0.0198164
0.00359269
0.0372751
0.00200185
0
0
0.00114057
0.0265249
0.00323163
0
6.89584e-05
0
0
0
0
0.00618418
0.0704628
0
0.0719486
0
0
0
0
0
0.0337995
0
0.0284846
0.0539499
0
0.0771572
0
0.0938528
0
0.0229953
0.025424
0
0.414396
0.0140134
0
0
0
0
0
0.0176471
0
0.0437939
0
0
0
0
0.0341285
0
0
0.0168457
0.0233674
0.023194
0.0458543
0.100028
0
0
0
0.0178234
0
0
0
0.00689649
0
0
0
0.038327
0.0513346
0
0.0961109
0
0.0422315
0
0
0.413318
0.00170689
0.00174999
0.0172855
0.0168437
0.00296785
0.0338303
0
0
0
0
0.0364909
0.00455072
0.0337899
0
0.0227255
0.0793471
0
0
0.0766181
0.0438831
0
0
0
0.0501751
0
0
0
0.00916677
0
0
0.0452108
0
0.0578802
0
0.100066
0
0.0975857
0
0.0694941
0
0
0.41243
0.017666
0.0318808
0
0
0.0139806
0
0
0.00250426
0.0220632
0
0
0
0
0.00481964
0.023951
0
0
0.0733819
0
0.0143521
0.00662311
0
0.0132619
0
0.0473004
0
0.038449
0
0
0
0.0114405
0
0
0
0.0320501
0
0
0.0704436
0
0.0763125
0
0
0.413526
0.0145316
0
0
0.0123846
0
0.0165059
0
0.00510944
0.0248021
0
0.0210991
0
0.0265082
0.0405831
0
0.0142461
0.0317137
0.0135945
0
0.131071
0.0221996
0.0104971
0.0132463
0.0395116
0
0
0
0.0222876
0
0
0
0
0
0
0
0
0.0954592
0
0.0999291
0
0.0574953
0
0
0.409573
0.00075438
0.0128777
0.0340521
0
0.0325784
0
0.0180754
0.00659364
0.0312516
0.000528914
0.0628927
0
0
0
0.0444042
0
0
0
0.00292708
0.03842
0
0
0.0535173
0
0.0137068
0
0
0
0.0491861
0.0396251
0.0836614
0
0
0
0
0.0641956
0
0.00401183
0
0.000134696
0
0.0417548
0
0
0.410761
0.032313
0
0
0.0175169
0
0
0.00157237
0
0.0301541
0
0.0120376
0
0.0209734
0
0.0999204
0
0.0563104
0.00512276
0.0749351
0
0.0552494
0.0408964
0.00232282
0
0.0172724
0.0598997
0.00229962
0.0508705
0
0
0
0.116146
0.00650739
0
0
0
0
0
0.042393
0
0.0337632
0
0.058428
0.00488435
0
0.411318
0
0
0.0258041
0.0186662
0.0354616
0.00646164
0.0304453
0.0121204
0.022703
0.0274127
0.0267627
0
0.0499054
0
0
0
0
0.00455703
0
0.0161018
0.0672713
0
0.0559983
0
0.0704191
0
0.0705737
0
0.0124544
0
0
0
0
0
0
0
0
0.0995187
0
0.0434975
0
0.0342468
0
0
0
0
0.413917
0.0078947
0.0108048
0.0311196
0.0158072
0
0
0
0
0.026417
0
0
0
0.00630476
0
0.0558856
0.000580703
0.0334614
0.075791
0.0221542
0.0310958
0
0
0
0.0177993
0.0316662
0
0
0
0
0.0649478
0
0
0.0272919
0.0362913
0
0
0
0
0
0
0
0
0
0
0.0262948
0
0
0.410246
0
0
0
0.0618012
0.0316934
0.0316659
0.0159971
0.00479639
0.0168394
0
0.0123141
0
0.0343692
0
0
0
0.0525703
0
0
0.0757117
0.00505867
0.0375132
0
0.000866408
0.021082
0
0.0463088
0
0.00813667
0.0417473
0.0367188
0
0.0293066
0
0.0404745
0
0
0
0.0180595
0.0591382
0.0211602
0.0223524
0.0577474
0
0
0
0
0
0.417303
0
0.0253436
0.0285376
0
0
0.00398697
0
0
0.0123268
0.00140643
0
0
0.00278437
0.00537754
0
0
0.056128
0.0359137
0.0538697
0
0
0.0585839
0.113909
0.0185697
0
0
0.011607
0.0535622
0
0.0163249
0.0160468
0.0549609
0
0
0
0
0
0
0
0.0815754
0
0
0
0.217634
0
0
0.0152655
0
0
0.411298
0
0
0
0.0573914
0.0390653
0.0279902
0
0.015972
0
0
0
0.0276758
0.00827244
0.00175202
0
0.241224
0.0201906
0
0.0166116
0
0.024145
0
0.0274552
0
0.0329029
0.02805
0
0
0.033927
0
0
0
0
0.00901763
0.0327445
0.0531017
0.0373686
0
0.0283853
0
0.0286148
0
0
0
0.159008
0
0
0
0
0
0.415582
0.00131621
0.0262193
0
0
0
0.025622
0
0.00579757
0.00250723
0.0110354
0
0
0
0
0.0486549
0
0
0.0548376
0.0547675
0.013525
0.020673
0
0.0685019
0.0623023
0
0.0494093
0.0147782
0.0256823
0
0
0
0.0301506
0
0.000638681
0
0.00252794
0
0.00989538
0
0.0493576
0
0.189678
0
0.0710949
0
0.123816
0.0948389
0
0.0549298
0
0
0.40752
0
0.0170212
0.0126658
0.00193852
0.0224002
0.0241532
0
0.0105502
0
0
0
0
0
0.0390224
0.0545266
0
0.0505999
0.0214449
0
0
0
0
0.0106269
0
0.0134245
0.0934227
0.0326052
0
0.0393234
0
0.0368466
0
0
0
0.0286186
0
0.0619139
0
0.0155601
0
0.0226761
0
0.00015409
0
0.182945
0
0
0.0967176
0
0.0450903
0
0
0.411788
0
0.01919
0
0
0.000157871
0.0493422
0.00367882
0.0292418
0.0190069
0
0
0
0
0
0
0.0455395
0
0
0.0778221
0.117693
0
0.0674922
0
0.0557221
0
0
0
0.0674084
0.100167
0
0.0467647
0.00999702
0.0102611
0.066481
0
0
0
0
0
0.00787679
0
0.0747837
0
0
0
0.175145
0.0171829
0
0.0639913
0
0
0
0
0.404564
0
0.0241272
0.0537656
0
0.0243726
0
0
0.0125329
0
0
0
0
0
0
0.0357478
0
0.0123383
0
0.016946
0
0.0434148
0
0.026173
0
0.0129214
0
0.0284223
0
0
0
0
0
0.0394875
0.0190668
0.106744
0
0
0
0
0
0.0395211
0.0132577
0.0155162
0
0.0370357
0
0
0.0671857
0
0
0
0
0
0
0.408696
0
0.00902185
0.0177672
0.0110521
0.0220311
0.0482497
0.0142631
0.0416886
0.0210833
0.0186288
0.0310775
0.00577977
0
0
0.0362309
0
0
0
0.0807274
0
0.00930033
0
0
0.0542067
0
0
0.0340895
0.0715821
0.0619061
0.0720398
0
0.0653988
0
0.0293444
0
0
0
0
0
0.139491
0
0.0350697
0
0
0
0.0999762
0.0329245
0
0
0
0
0.0151388
0
0
0
0.399823
0
0.0209147
0.0296547
0
0.0194286
0
0
0
0
0
0
0
0.0136102
0.0434241
0.00622311
0.031705
0.0271126
0.0237401
0
0
0.0166693
0
0.0949877
0
0
0.101346
0
0
0
0.0254359
0
0
0.00476015
0
0.0399221
0
0.0101902
0.0335834
0
0
0.0379194
0
0.0429176
0
0.0502588
0
0
0
0
0.0216276
0
0
0
0.0494602
0
0
0.406512
0
0
0.0289493
0.018059
0.0358257
0.0326994
0.0174765
0.0300929
0.00544641
0.0228604
0.061058
0.0460998
0.0456347
0
0.0189878
0
0
0.0192003
0
0
0.0564039
0
0.0616595
0
0.00515205
0
0.0313642
0
0
0.0258002
0.041251
0.0211718
0
0
0.0218783
0.0425228
0.0231643
0.0284959
0.00284619
0
0
0
0.0213933
0
0.02154
0
0.015652
0
0
0
0
0
0
0.0362903
0
0
0
0.398961
0.0102617
0.010877
0.0154778
0
0.027466
0
0
0
0
0.0254344
0
0
0
0.0400581
0
0.0194344
0
0
0
0.0304852
0
0.0424884
0
0.143052
0.0395539
0
0.00933418
0.011072
0
0.0607285
0.0700872
0
0.0147429
0
0.0308223
0
0
0.0650191
0
0
0.0130884
0
0.0493187
0
0.0319018
0.00110653
0.00987379
0
0
0
0
0.0169034
0
0
0
0
0
0
0.403618
0.00823214
0
0.0184737
0.0116129
0.0390368
0.00642917
0.00573566
0.00883246
0.00312864
0
0.0473081
0.0536183
0
0.0266661
0.0130454
0.0121687
0
0
0.00715587
0
0.0428476
0.0511331
0
0.026747
0
0
0.0197806
0
0
0
0.00635076
0
0.00734064
0
0.00301034
0
0
0
0
0.0998554
0
0
0
0.0499105
0
0.0159087
0
0.0654672
0
0
0.0382767
0
0
0
0
0
0
0.00135482
0
0.396253
0
0
0.0133714
0
0.0190093
0
0.00273328
0.00259263
0.000822793
0.0498787
0
0
0
0.0331178
0
0
0.0106676
0
0
0.0265545
0
0.0276585
0
0.0738477
0
0
0.00500053
0
0
0
0
0
0.100052
0.0132432
0.00285577
0.0540654
0.0161711
0.0220453
0.0298235
0
0
0
0.0264495
0
0.0142577
0
0.00185225
0
0
0
0
0
0
0
0.0492896
0
0.0203924
0
0.00402171
0
0.398118
0
0
0.0183604
0.00139917
0.0522612
0
0
0
0
0
0
0.0154443
0
0
0
0.0556364
0
0.0137482
0
0
0.0333754
0
0.00809968
0
0.0261696
0
0
0
0.0107156
0
0
0
0
0
0
0
0
0.00974501
0
0.0437155
0
0.00980731
0.0101093
0.0562571
0
0.0399396
0
0
0.0481766
0.0567626
0
0
0
0.0330554
0
0.0333772
0
0
0
0.00794336
0
0.392747
0
0
0.0139202
0
0.0190589
0
0.0252381
0.014843
0.00882231
0.0361758
0.0099482
0
0
0
0.151074
0.0373391
0
0
0
0
0
0.0698459
0.0413127
0.0676162
0.0896296
0
0.00477798
0.0171344
0
0.0104361
0
0
0.00573895
0
0
0
0
0.000167879
0
0.0279263
0
0.0224459
0.07975
0
0
0
0.0387607
0.00804612
0.00132429
0
0.00759305
0
0.0391085
0
0.0466379
0
0.0110416
0
0.0670725
0
0.0035841
0
0.396272
0
0.00634783
0.0465804
2.00282e-05
0.0325507
0
0.00228141
0
0
0
0
0
0
0.0192675
0.0451337
0
0
0.0277228
0
0.00321237
0
0.0260013
0
0
0
0
0.0862641
0
0.0815484
0.0392857
0.0548187
0.00650898
0.000131186
0.0493351
0
0.0491034
0
0
0.0308204
0.0267251
0
0
0
0
0
0.0313942
0
0.00240871
0
0.00732774
0
0.0275881
0
0
0
0.0052536
0
0.00853329
0
0.00300408
0
0.0119208
0
0.388591
0.0179664
0
0
0
0.0217779
0.0129368
0.0363634
0.0125365
0.013048
0.0514587
0
0.0254127
0
0.055163
0
0
0
0.0513431
0
0.00373854
0
0.0192965
0
0.0124926
0
0.0596292
0.00553786
0
0.0427524
0
0.0158131
0
0
0
0.00260531
0
0.000721978
0.0522465
0
0
0.00998341
0.0792963
0.0589252
0
0.0561572
0.0515213
0
0
0
0
0.0414573
0.0167834
0
0
0
0
0.00285926
0
0.0169254
0
0.0408562
0
0
0
0.39277
0.00921203
0.0132468
0
0.0227491
0.00612778
0
0.00786056
0
0
0
0
0
0
0.0134471
0.0274108
0.0793012
0
0.0112649
0.03658
0.0678597
0
0
0.0433309
0
0.0936099
0.0126811
0.0400425
0.00962721
0.0961487
0
0.0501372
0
0.0134499
0.00476314
0.0218658
0.0345179
0
0.0454967
0.0160379
0
0.0212091
0
0
0
0.105345
0.0364417
0
0
0
0.0237739
0
0.0342552
0.0294356
0.00266614
0
0.0217464
0
0.0152804
0
0.0307808
0
0.0692259
0
0
0
0.385579
0
0.00317237
0.0121043
0.0167513
0.0343354
0.0328998
0.037675
0.00584213
0.00661136
0.0355019
0
0.0420605
0.00971446
0.0999219
0.0584051
0.020006
0
0.0205685
0.0990252
0
0
0.00527333
0
0.0310117
0
0.00359042
0.0583236
0
0.00594184
0
0
0.0809843
0
0
0
0.0652836
0.0166824
0.00182055
0
0.0136894
0.000585587
0.05166
0
0.0301675
0
0.01925
0
0
0
0.0437087
0
0
0.0374896
0
0.00306258
0
0.0330239
0
0
0
0.120017
0
0.0475145
0
0
0
0.391051
0
0.0146838
0.00307744
0.0365546
0
0
0.0128094
0
0.00950127
0
0
0.00455767
0
0.0354062
0
0.0228705
0
0
0.0831588
0
0.0430194
0.000688144
0.0149658
0.0294242
0
0
0.0451294
0
0.0339265
0.0128293
0.0144023
0.157702
0.0254758
0.0469457
0.0170674
0
0.0166302
0
0
0.0735997
0.0628128
0.0195509
0.0269541
0
0.00979073
0
0.0457509
0.0348574
0.179784
0
0.0132673
0
0
0.039015
0
0
0
0
0.0188303
0
0
0.122339
0
0.0434288
0
0.00588757
0
0.381209
0
0
0
0.0392521
0.0227067
0
0.0336888
0
0.00762834
0.0310402
0
0.0285786
0.0585446
0.0518339
0.0377584
0
0
0
0.168537
0
0.035648
0.0580151
0
0.026298
0
0.040436
0.00327888
0.0267591
0.0280932
0.0387765
0.0435843
0.0855218
0
0.0999262
0
0.023256
0
0
0.0231916
0.00298039
0
0
0
0.0238006
0
0.0208604
0
0.0113343
0.0137017
0
0.0250939
0
0.0671995
0
0.0383549
0
0.0198302
0
0.0109978
0
0.00702116
0
0.0345843
0
0.0367828
0
0.01238
0
0.387269
0.00895623
0.0130587
0
0.039985
0
0
0.0163036
0
0.0227743
0
0
0.0378775
0
0.0237732
0
0.0240147
0.142797
0.0799721
0.126372
0
0.0144727
0.025239
0.0420853
0
0
0.0227805
0
0.0513874
0.0345742
0.0401118
0.0170472
0
0.017826
0.0720896
0
0
0
0.000812161
0
0.0536369
0.018464
0.00284829
0.00110604
0
0.0745281
0.0999343
0.0767218
0
0
0
0.0430731
0.0497498
0.0291156
0.0298664
0
0.0185101
0
0.0262262
0
0.00434561
0
0.0178548
0
0.0561582
0
0.0495832
0
0
0
0.380323
0.0116769
0.0236131
0.0345039
0.0626803
0
0.0527438
0.0196584
0
0.0090435
0.0156231
0
0.0032808
0
0.00327725
0
0.0425301
0.0250617
0
0
0
0.00862638
0.0382221
0
0
0.00946468
0
0
0.0664469
0.0074641
0.0463373
0.0346821
0.0152469
0
0.0196105
0.0211469
0
0
0
0.0470411
0.00843042
0
0
0
0.0399152
0
0.0143523
0
0.00314093
0.0183047
0.0387295
0
0.0116306
0.00114904
0
0.00792696
0.0174202
0.00886126
0
0.0149119
0
0.0317016
0
0.0176017
0
0
0
0.0112022
0
0.00582045
0
0.387786
0
0
0.0132276
5.09074e-05
0
0.00619894
0
0
0.0324939
0.00776577
0
0.0565524
0
0
0
0.00145001
0
0.0249231
0
0
0.0308988
0
0.0325657
0.0737686
0.0133992
0.0167269
0.0352445
0
0.00685296
0
0.0217864
0.0458578
0.0171377
0.0261822
0.0645115
0.0226548
0.0266375
0
0
0
0.00406836
0
0.0662176
0
0.0438769
0.00979907
0
0
0.0422423
0
0.0461521
0.0452133
0.0313862
0.0119031
0
0
0.0197067
0.0222461
0
0.0294322
0
0.00834339
0
0.0222242
0
0.033641
0
0.00225925
0.0475956
0
0
0.373994
0.00138579
0.0036786
0.00752451
0.0540799
0
0.0336016
0.00676165
8.71901e-05
0.00955868
0.00434464
0
0
0
0.0276386
0.0894116
0.0535479
0
0.0476129
0
0.0711827
0.191125
0
0.01781
0.0587741
0
0.0503579
0
0.00511111
0.0342242
0.0125933
0.00608602
0.0306296
0.0536818
0.0578406
0.00182955
0
0.00495142
0.100025
0.0214204
0
0.0154983
0.00719541
0
0.0334437
0
0.0365509
0.0200816
0.0303779
0
0.0425072
0
0.0337756
0
0.0317921
0.0139733
0
0.0579451
0.0256789
0.0552966
0
0.0144531
0
0
0
0.00244965
0
0
0
0.027541
0
0
0
0.382514
0
0.00614875
0.00242916
0
0
0.0369821
0
0.00487256
0.0292842
0.0213989
0
0.0657927
0
0
0
0.0310283
0
0.0160928
0
0.00362958
0.158266
0
0.0508617
0.0274593
0.0412466
0.0666182
0.0455559
0
0.0773912
0.0213614
0.0165035
0.00885744
0
0.00934988
0.0248
0
0.0442803
0.0257804
0
0
0
0.013137
0.0222286
0
0.0352454
0
0.0157717
0.0325904
0.0351693
0
0.0486706
0.0422659
0.0400766
0.0160436
0.0107067
0.0393668
0
0
0
0.00452176
0
0.0335059
0
0
0
0.0211141
0
0
0
0.0076072
0
0.0177282
0
0.372265
0.0869628
0.00996589
0.0277082
0.0257302
0
0.0288998
0
0.000662801
0.00244125
0
0
0
0
0.0247768
0.0442365
0.0999835
0
0.0411739
0
0.0993458
0.00525407
0
0.0264001
0.0291563
0.0320543
0.0016875
0.0872726
0.0278108
0.132553
0.0344122
0
0
0
0
0
0.0251215
0.0563395
0.043227
0
0
0.0167828
0.00112402
0
0.00404821
0
0.0641488
0
0.0262078
0.00293624
0.0074589
0.039272
0.0149513
0.0537379
0.0176533
0.0697367
0.0826804
0.0302668
0
0.0150178
0
0.0162299
0
0.0399907
0.0290768
0
0
0.0263434
0
0.0414959
0
0
0
0.0200225
0
0.380047
0
0.0187648
0.037425
0
0
0.0463479
0
0.00473795
0.025512
0.0254994
0
0
0.0384867
0
0
0
0
0.054196
0
0.0455854
0
0.0271155
0.0242173
0.00901817
0.051995
0.0153004
0.0639138
0.01274
0
0
0.00339946
0.0496664
0.0279373
0.0319359
0.000967678
0.028973
0.0682196
0
0
0.0126486
0.0256483
0
0.057761
0
0
0
0
0
0.00620605
0
0.0344781
0
0
0
0.000302649
0
0
0
0
0.0199455
0.129343
0.0207659
0
0
0
0
0
0
0
0
0
0.00733744
0
0.0276159
0
0.365016
0.0248803
0.0609131
0
0
0
0.0322068
0
0.0161675
0
0
0
0.0114613
0
0.0386974
0
0.078183
0.0514534
0
0
0.0726475
0
0.0971027
0
0.0415068
0.0332663
0.0386153
0.0864629
0.0479036
0.00599781
0.0642716
0.00679199
0.0477036
0.00563453
0.00153039
0.00577172
0.0131212
0.00344727
0.00649809
0.0375941
0.0738063
0.049204
0.102405
0
0
0.00114733
0.0467965
0
0.0290546
0
0.0690882
0.00991164
0.0496628
0.0603934
0
0.0136277
0.00583301
0.0265483
0
0.0254114
0
0
0
0.0383069
0.00303598
0.000642594
0
0.00162768
0
0.00959905
0
0.0427894
0
0.0427053
0
0
0
0.373132
0.0263114
0.0103454
0.0264198
0.0131489
0.0208597
0.0497709
0
0.0181347
0.0174968
0.0339512
0
0
0.00754801
0.00619291
0
0
0
0.0183899
0.239934
0
0
0.061461
0
0
0
0.0431422
0.0252145
0.0136042
0
0.023047
0.035713
0.0614227
0
0
0.0435868
0.00167545
0.0169574
0.0132646
0.0821128
0.0781113
0.00515932
0
0
0.0466087
0
0
0.0155972
0.000469816
0.0281578
0
0.0149659
0.00655437
0.0535621
0.0396605
0.0643281
0.0485931
0.0825802
0.0409384
0.00543819
0.00854181
0.0200475
0.0218679
0.0726644
0.0106787
0
0.0501961
0
0
0
0.0273912
0
0.0679079
0
0.0293467
0
0.00614744
0
0.363331
0.0974464
0
0
0
0
0.019877
0
0.023183
0
0
0
0.0303548
0
0.0398922
0
0.00178646
0.0798196
0
0
0
0
0.100014
0.034813
0.0996568
0.000225101
0.0998704
0.00534525
0.0341382
0.019466
0.0606196
0.0395321
0
0.03671
0.0182176
0
0
0
0.00433607
0
0.0173739
0.0219208
0
0.000323463
0.0714226
0.000211146
0.0224378
0.0018286
0
0
0.0336674
0.00643809
0.0415445
0
0
0
0.0317031
0.0280929
0.0864731
0.0239345
0
0
0.0341542
0
0.0271683
0.046258
0
0.0139953
0
0
0
0.00431942
0
0
0
0.0341889
0
0
0
0.369101
0.00882665
0.0674305
0.0282653
0.0250678
0.0316757
0.0288358
0
0.0117851
0.00243672
0.0352117
0
0.00662234
0
0.0418797
0
0.0325734
0
0.00122885
0.248935
0
0.00597967
0
0
0
0
0.036476
0.147145
0.0483466
0
0.0477571
0.000614885
0.0336549
0.0316857
0.021701
0.00375899
0.0336215
0
0.0430212
0
0.0268377
0.0191392
0.024124
0.096951
0.00774555
0.0281559
0
0.0679411
0
0.023356
0
0.0410453
0
0.0603431
0.0101105
0
0
0
0.0100983
0.113339
0.0398194
0
0.0593937
0.0138743
0
0.0237584
0.0222941
0.01167
0.0122284
0
0.0153145
0
0
0
0.04524
0
0.0482802
0
0.0106044
0
0.357819
0
0.0742494
0
0
0.00738747
0.00903841
0
0.026231
0.00299936
0
0
0.0245723
0
0.0288384
0
0.00707773
0.0231214
0.0583681
0
0
0
0.0615442
0.0349475
0.0987892
0.0708765
0
0.0302845
0
0.0183233
0.0441732
0.019167
0
0.00788396
0.00738639
0.0023196
0.0149644
0.0517739
0.0141654
0.0282942
0.0138442
0.0374311
0
0.0357882
0
0.0517219
0
0
0
0
0.0410554
0.000349004
0.0352191
0.0131142
0.0396618
0.0183528
0.0276989
0.0707768
0.0510782
0
0
0.000129164
0.0458961
0
0.041666
0.0192845
0.0458901
0.0438051
0
0.0213202
0
0
0
0.0129781
0
0.0406645
0
0.0462747
0
0.00688523
0
0.366794
0.0822363
0
0
0.0252307
0.0295368
0.00709813
0
0.0192631
0
0.0299694
0
0.00888967
0
0.0375107
0
0.047028
0
0
0
0
0
0
0.103439
0.0463702
0
0
0.18108
0.0147472
0
0.00137013
0.150056
0.0286619
0.0874013
0.00168584
0.0143185
0.00552468
0.00415781
0
0.00444734
0.0107711
0.00118731
0.00706313
0.0190593
0.012482
0
0
0.0138704
0.0618025
0
0
0.0109299
0.0326115
0.0520913
0.0104889
0.0349001
0
0.00533879
0.000210271
0.0175184
0.0516834
0
0
0
0
0
0.0140924
0.0156896
0.0560761
0
0
0
0
0
0
0
0.0369301
0
0.0436647
0
0.0324424
0
0.353497
0
0
0
0
0.0253999
0.00340074
0.00466708
0.023288
0.0115867
0
0
0
0
0
0
0.0461303
0
0
0
0
0
0.0111915
0
0
0
0
0
0.136725
0
0.0561965
0
0
0.0594668
0
0.0294841
0.039976
0.0183245
0.0122527
0.0320836
0.0385067
0.030701
0.0076529
0.0294508
0
0.0453355
0.082506
0.0287464
0.0999952
0
0
0.0267438
0.0443557
0
0.0283855
0.0542901
0.0277884
0
0
0
0.041976
0
0.0709678
0.0663302
0.0431143
0.0199955
0
0
0
0.00743955
0
0.0156113
0
0.0189261
0
0.00943641
0
0.0398946
0
0.0384824
0
0.0384328
0
0.364398
0.036015
0
0
0.0192485
0.030197
0
0
0.00884826
0
0.0227569
0.00271992
0.00197233
0
0
0
0
0.00781388
0
0.166335
0
0.190736
0
0.100096
0.056519
0.0383309
0
0.19745
0
0
0.0981639
0
0.0156664
0
0.0122607
0.0630461
0.0536801
0.0498123
0.0211628
0
0
0.0616839
0
0.0338597
0.0435765
0.000863708
0.049891
0.0174668
0
0
0.0344238
0
0
0
0
0.0744177
0.0189951
0.0999798
0.00129331
0.00175901
0.0638119
0.0325396
0
0.0131496
0
0
0
0.146568
0.0476147
0
0.0820292
0
0.0134015
0.0147639
0.0102547
0
0
0.0257096
0.052524
0
0.056056
0
0.0364806
0
0.351704
0.0491307
0
0
0
0.0453471
0
0
0.0166554
0.0217052
0.0115463
0
0.00716834
0
0.0167917
0
0.0416752
0
0.0113183
0
0
0
0
0
0
0
0.020628
0
0.0998718
0
0
0
0.037014
0
0.0667399
0
0.0245704
0.0286721
0.0398096
0.0069484
0
0.0128725
0
0.0121465
0.0374564
0.0451594
0.0248326
0.0432941
0
0.062149
0.0122271
0
0.0352765
0.00741545
0
0.0438072
0.00870853
0.00732396
0
0
0
0
0.0573516
0.0291017
0.0423859
0
0.0324621
0
0.0999401
0.0493032
0
0.0120691
0.0168081
0.0145354
0
0.00858041
0
0.00526208
0
0.0334258
0
0.043044
0
0.0378081
0
0.358741
0.0027844
0
0
0.0228071
0.0372793
0
0
0
0
0.0107337
0.00068614
0
0
0
0.0129169
0
0.011868
0
0.0423502
0
0.0191364
0
0.00655449
0.00814099
0
0
0
0
0
0.0333931
0.0368073
0
0.0244003
0.0464973
0
0.0301268
0.0156862
0.045749
0.0413191
0.0271596
0.0567452
0
0
0.0259404
0.0239138
0.0430626
0.0245831
0.0748519
0.0668174
0
0.0536205
0
0.0466775
0.0568901
0.0910873
0.00827323
0.047179
0.0405042
0.0628555
0.0574856
0.0139551
0.00200626
0.0426189
0
0.0518099
0.0617451
0.0266699
0.0101116
0
0.040355
0
0.0259825
0
0.0274251
0.00392972
0.0265152
0
0.0121191
0
0.0073806
0
0.0445955
0
0
0
0.349011
0
0.068821
0
0
0.0487789
0
0.0166764
0.0165509
0.0254887
0.0102134
0
0.0159699
0
0.0277132
0
0.0141238
0
0.00920686
0.0353024
0.0632747
0
0.0423999
0
0.0441353
0
0.0546666
0.0488436
0.0333499
0.0295828
0.0591059
0
0
0.183562
0.0373822
0.0534751
0.0879594
0.0185941
0.0247855
0.0539726
0.038165
0.0999225
0.0027621
0.0344657
0.0353186
0.0218348
0.0323292
0
0.0197326
0
0
0.00188977
0
0
0
0
0
0.0192953
0.0432842
0.0237611
0.0292968
0
0.0570419
0.0721148
0.0097349
0.0606885
0.00634198
0
0.0451988
0.0107365
0.0162122
0
0.0471288
0
0
0.027971
0
0
0
0.0226615
0
0
0
0.0325572
0
0.00396279
0
0.355993
0
0
0
0.0218369
0.038101
0
0.0113991
0
0
0
0.00862725
0.00932104
0
0
0.0177599
0
0
0.0108662
0.056311
0.0246591
0.0364883
0.0284769
0.0629947
0
0
0
0.0398666
0
0.0178179
0
0.00447108
0.0220964
0
0
0.0308002
0
0.0193856
0.0111214
0
0.0270424
0.0512069
0
0.00856989
0
0.0643449
0.0112724
0.0142383
0.00389716
0.0454157
0
0.0594882
0.0202831
0.00882525
0.0212744
0
0.00706041
0
0
0.0345108
0.0653197
0
0.0303716
0.0199427
0
0.0801345
0.0390524
0
0.0166348
0.00248701
0
0.00472421
0
0.00714995
0
0
0.00570416
0
0.00941862
0
0.0223138
0
0.0084352
0
0.0115447
0
0.000985615
0
0.344711
0
0
0.0051332
0.011655
0.0424315
0
0.0189458
0.0107881
0.0206738
0.0101796
0
0.0207152
0
0
0.0127445
0
0
0
0.0293773
0.0234762
0
0.0452837
0
0.0370715
0.0189142
0.0234481
0.0309857
0
0.0168734
0.0169525
0.0335542
0.0437266
0
0
0.0337193
0.0332012
0.0421445
0
0.0708365
0.0201708
0.0531309
0.0446665
0
0.069172
0
0.0139062
0.0311287
0.00205299
0.00541447
0.0484091
0.0393787
0.0142835
0.0929076
0.108917
0
0.100394
0.0210124
0.0148649
0.0777888
0.0654174
0
0.00983786
0
0.00406247
0.0270025
0
0.00945808
0
0.0580584
0.0112912
0.0348735
0.0175774
0.0353834
0.0595909
0.00140903
0
0.041031
0
0.0345784
0
0.00554285
0
0.0219286
0
0.0306976
0
0
0
0.352774
0.108681
0
0
0.0204254
0.0279293
0
0.0159177
0
0
0.00637435
0.0115605
0
0.0327232
0
0.0100679
0.0520101
0
0.0475693
0
0.0880625
0.00774163
0.0233546
0.0063287
0.00442217
0.0352035
0
0.0487967
0.0143129
0.0545834
0.043346
0.0195603
0
0
0.00048842
0.0400863
0.00618554
0.149221
0
0.0762809
0.0288795
0.0281678
0.0557912
0.0286222
0.0932959
0
0.0778538
0.0305492
0.0492329
0.0126756
0.0108911
0.0315154
0.0016031
0.0104421
0
0
0
0
0
0
0.0175254
0.0223948
0
0.0112102
0.00455822
0.0491128
0
0.00122778
0
0.00651147
0
0.00863607
0
0.0571079
0.00952058
0
0
0
0.0192678
0.0169663
0.0310941
0
0
0
0.000984527
0
0.0229158
0
0.0060145
0
0.336317
0
0.0142061
0
0.0138283
0.0308093
0
0.0120862
0.00434102
0.019548
0.0163241
0
0.024848
0.0138648
0.0194849
0
0
0.0222679
0
0.00779205
0.0547686
0
0.0768851
0
0
0.0498502
0.0355216
0.00782577
0
0.0189791
0.0341784
0
0.0122149
0.00606452
0.0366644
0
0.0191086
0.0795119
0
0.00606634
0.0161044
0
0.0503575
0.0442021
0.0454201
0
0.00179643
0
0.0248269
0
0.0221313
0.0535139
0.0301525
0.0114398
0.0418262
0.0434936
0
0.0429354
0.0280978
0.0242435
0.00809278
0
0.00507088
0.0368483
0.0166437
0.00350436
0.0465025
0.0650284
0.0578189
0
0.00120877
0.0618262
0
0
0.00128764
0.0768201
0
0.0111901
0
0.0179088
0
0.0118587
0
0
0
0
0
0.00692319
0
0.0138603
0
0.339008
0
0
0
0.0314226
0.0246531
0
0.0103251
0
0
0.00168558
0
0
0
0
0
0.0715578
0.0366625
0
0
0.0167974
0.0215563
0.00504967
0
0
0.000947901
0
0.00420193
0
0.0144464
0.0196635
0.0397872
0
0.00831164
0.003993
0.0392038
0
0.0700463
0
0
0.0243827
0.0210616
0.0436609
0.016993
0.0611923
0.0845331
0.040192
0
0.080624
0.0418388
0.0372335
0.0108429
0.00795378
0.0475801
0.0501668
0.0435396
0
0.0271782
0.0146908
0.0490616
0
0
0.064743
0.0999782
0.0490619
0.0305827
0
0
0
0.0389316
0.0236801
0.00397703
0.011737
0.0629193
0.0238509
0.0776052
0
0.0343182
0
0
0.00814489
0.0270393
0.0148197
0
0
0
0
0
0.0143395
0
0.0224861
0
0.322119
0.0511158
0
0
0.0233389
0.0281441
0
0.0312208
0.00718042
0.0276565
0.017525
0
0.0286403
0.00233023
0
0.0227766
0.0177984
0
0.0635067
0
0
0
0.00344318
0
0.0208987
0
0
0
0
0.033044
0.0201538
0.00333248
0.0081787
0.0868964
0.0358126
0.0553612
0.0453483
0
0
0.0104778
0.099878
0
0.0239786
0.0955898
0.0159234
0.0263552
0.0154783
0.100026
0.0105354
0
0.0256778
0.0300258
0.0450648
0.0430363
0.0500529
0.0239797
0.00721241
0
0
0
0
0.0139298
0
0
0
0.0169978
0.0687352
0.0853458
0.0167561
0.0115774
0.00351979
0.00576915
0
0
0.00402697
0
0
0.0539609
0.0253422
0
0.0240784
0.00174287
0
0.00295225
0.0142987
0
0
0
0
0.0462384
0
0.0219769
0
0.33105
0.0239499
0.0359909
0
0.00730795
0.0117938
0
0.0187846
0
0.00296992
0
0
0
0.0148149
0.00401847
0.0283837
0
0.0278471
0
0
0
0.0580942
0
0.0140969
0
0.0788644
0
0.0422264
0.0460061
0.00718761
0.0251709
0.0259188
0.0306723
0.00689124
0
0.040793
0
0
0
0
0
0
0.0141405
0.0259496
0.00453385
0.0101953
0.0513827
0
0
0.00109414
0.0314104
0
0
0.0261611
0.0352136
0.0433662
0.0258767
0.0343055
0.0682612
0.0592976
0.0133172
0.098197
0.0711011
0.00985315
0
0.0419068
0.0173744
0
0.00120948
0.0314326
0.0212953
0.00440721
0.0298742
0
0.0827637
0.0390092
0.0151042
0.0639478
0
0
0
0.0442811
0.00955638
0
0
0
0
0
0
0
0.0472318
0
0.0406076
0
0.327291
0
0.0288913
0.0394048
0.0345133
0.0373651
0
0.0343059
0.00806054
0.0217425
0.00706207
0
0.0204249
0
0
0.0194311
0.0710203
0
0.0539836
0
0
0
0.0356921
0
0.0201161
0
0
0.0365915
0.00848648
0
0.0250476
0.03352
0.0215996
0.0388676
0.0355654
0.0117792
0.0352978
0.027665
0
0
0.0212198
0.00346068
0.0676341
0.0328647
0
0.0266677
0.0146414
0.0484789
0.0931009
0.0739706
0
0.0685352
0.0615739
0.0484602
0.0323736
0.0287643
0.0632847
0.0465378
0.099959
0
0.0214709
0.0458206
0.0040568
0
0
0.0198152
0.00838021
0.0117156
0.00154942
0
0.0585132
0
0
0
0
0
0.0405513
0.0656369
0.0199803
0.016831
0
0
0.0257861
0.0109916
0
0
0.0428755
0.00579096
0
0
0
0.0138727
0
0.0201243
0
0.344429
0
0
0.0555196
0.059908
0
0
0.0146287
0
0
0
0.00731687
0.00431878
0.0178504
0
0.0451506
0
0.00736379
0
0.00374833
0
0.00474686
0
0
0
0
0.0110317
0
0.0111435
0.0141974
0
0.00758639
0
0
0.0154564
0.0591235
0.0704609
0.0251563
0.000692024
0.03438
0.0372987
0.0115225
0
0
0
0
0.0373716
0.0124555
0
0
0.0246162
0.0139155
0
0.032019
0.00997356
0.0346351
0.0310206
0.0258122
0.0202967
0
0.0404277
0
0
0
0.0497691
0.0101457
0.0459786
0.0587857
0
0.00874939
0.0190372
0
0.071053
0.0288815
0.0378408
0
0
0.00207606
0
0.0472776
0.0504838
0.048811
0
0.0116677
0.0137001
0.0140228
0.00948351
0
0
0
0
0
0
0
0.0457438
0
0.33093
0
0
0
0.00619364
0.0215085
0