/*--------------------------------*- C++ -*----------------------------------*\
| =========                 |                                                 |
| \\      /  F ield         | OpenFOAM: The Open Source CFD Toolbox           |
|  \\    /   O peration     | Version:  2206                                  |
|   \\  /    A nd           | Website:  www.openfoam.com                      |
|    \\/     M anipulation  |                                                 |
\*---------------------------------------------------------------------------*/
FoamFile
{
    version     2.0;
    format      ascii;
    arch        "LSB;label=32;scalar=64";
    class       volScalarField;
    location    "170";
    object      nut;
}
// * * * * * * * * * * * * * * * * * * * * * * * * * * * * * * * * * * * * * //

dimensions      [0 2 -1 0 0 0 0];

internalField   nonuniform List<scalar> 
93840
(
2.34722e-07
9.89114e-10
2.30402e-07
5.28538e-08
1.102e-09
1.928e-07
9.43691e-09
3.95677e-08
2.871e-09
1.46999e-07
5.39263e-08
2.27134e-08
3.85315e-08
7.04898e-09
1.23264e-07
2.53389e-08
3.68495e-08
1.89462e-08
4.51236e-08
8.03075e-09
9.49197e-08
3.34047e-08
2.59664e-08
3.79e-08
1.74359e-08
3.32915e-08
1.06034e-08
1.08093e-07
2.43827e-08
3.32017e-08
2.41394e-08
3.99931e-08
2.14606e-08
4.19259e-08
1.04944e-08
9.41493e-08
3.26795e-08
2.29537e-08
3.22487e-08
2.8956e-08
3.80631e-08
1.94261e-08
3.23607e-08
1.19829e-08
1.08289e-07
2.49414e-08
3.61335e-08
2.54629e-08
3.29395e-08
2.54002e-08
3.73263e-08
1.96209e-08
3.3844e-08
1.17429e-08
9.3992e-08
3.24038e-08
2.48275e-08
3.31412e-08
2.6859e-08
3.90279e-08
2.31318e-08
3.92051e-08
2.33013e-08
3.2645e-08
1.46326e-08
1.0622e-07
2.52956e-08
3.3134e-08
2.54599e-08
3.43522e-08
2.63921e-08
3.30625e-08
2.15875e-08
3.27727e-08
2.50714e-08
3.17795e-08
1.37565e-08
9.06622e-08
3.20515e-08
2.43995e-08
3.30661e-08
2.61856e-08
3.32874e-08
2.29293e-08
3.82112e-08
2.26691e-08
3.30196e-08
2.7028e-08
3.14234e-08
1.40357e-08
9.75036e-08
2.58435e-08
3.2404e-08
2.51788e-08
3.17268e-08
2.82286e-08
3.32512e-08
2.62172e-08
3.7909e-08
2.88596e-08
3.59636e-08
2.55069e-08
3.21927e-08
1.33892e-08
9.15275e-08
3.18958e-08
2.5607e-08
2.99459e-08
2.79923e-08
3.02561e-08
2.37309e-08
3.45134e-08
2.3109e-08
3.50542e-08
2.66849e-08
3.29519e-08
2.55415e-08
3.30874e-08
1.41298e-08
9.60038e-08
2.63472e-08
3.17959e-08
2.64939e-08
3.00088e-08
2.64396e-08
3.2547e-08
2.51308e-08
3.13457e-08
3.08361e-08
3.40599e-08
2.88511e-08
3.41689e-08
2.36099e-08
3.16355e-08
1.33719e-08
9.03965e-08
3.22018e-08
2.58842e-08
2.9968e-08
2.59916e-08
3.05288e-08
2.36711e-08
3.16559e-08
2.6081e-08
3.33456e-08
2.67198e-08
3.31532e-08
2.70203e-08
3.34542e-08
2.63702e-08
3.34905e-08
1.37745e-08
9.35035e-08
2.64677e-08
3.19871e-08
2.52786e-08
3.01408e-08
2.41473e-08
3.19828e-08
2.59219e-08
2.98085e-08
2.76506e-08
3.0092e-08
2.95901e-08
3.17774e-08
2.60688e-08
3.38718e-08
2.45137e-08
3.36529e-08
1.33002e-08
8.94087e-08
3.27906e-08
2.56372e-08
3.08973e-08
2.56537e-08
3.20547e-08
2.51712e-08
3.16165e-08
2.57301e-08
3.09632e-08
2.57085e-08
3.27469e-08
2.70717e-08
3.33612e-08
2.70606e-08
3.21278e-08
2.40984e-08
3.41241e-08
1.39946e-08
9.15314e-08
2.71837e-08
3.3164e-08
2.46932e-08
3.1125e-08
2.57359e-08
3.14895e-08
2.68858e-08
3.05252e-08
2.67761e-08
2.96172e-08
2.69964e-08
2.9927e-08
2.82302e-08
3.37033e-08
2.73959e-08
3.29597e-08
2.21492e-08
3.3614e-08
1.3668e-08
8.75803e-08
3.25442e-08
2.70004e-08
3.23133e-08
2.7135e-08
3.13288e-08
2.65005e-08
3.13755e-08
2.63723e-08
3.17615e-08
2.61232e-08
3.14176e-08
2.52243e-08
3.32182e-08
2.61586e-08
3.28684e-08
2.5463e-08
3.18318e-08
2.36999e-08
3.42853e-08
1.43869e-08
9.00783e-08
2.7233e-08
3.30502e-08
2.48359e-08
3.04468e-08
2.61447e-08
3.08723e-08
2.6559e-08
3.08578e-08
2.66987e-08
2.95847e-08
2.684e-08
3.05844e-08
2.71253e-08
2.99315e-08
2.87373e-08
3.21711e-08
2.83643e-08
3.2851e-08
2.23195e-08
3.46967e-08
1.38141e-08
8.74417e-08
3.27605e-08
2.74951e-08
3.2749e-08
2.78194e-08
3.07095e-08
2.56534e-08
3.13013e-08
2.67393e-08
3.1489e-08
2.63375e-08
3.13553e-08
2.64829e-08
3.07781e-08
2.57066e-08
3.37705e-08
2.71909e-08
3.29467e-08
2.60341e-08
3.22443e-08
2.49202e-08
3.483e-08
1.47389e-08
8.98328e-08
2.73254e-08
3.30537e-08
2.72259e-08
2.9761e-08
2.76008e-08
3.20617e-08
2.86554e-08
3.21894e-08
2.6571e-08
3.09671e-08
2.74027e-08
3.02589e-08
2.67279e-08
2.98186e-08
2.7334e-08
3.0436e-08
2.93196e-08
3.28481e-08
2.6021e-08
3.2333e-08
2.52962e-08
3.46789e-08
1.45353e-08
8.85479e-08
3.27591e-08
2.80946e-08
3.24042e-08
2.79195e-08
3.06026e-08
2.50198e-08
3.12388e-08
2.64352e-08
3.15554e-08
2.76053e-08
3.13914e-08
2.73161e-08
3.08891e-08
2.58442e-08
3.21231e-08
2.54007e-08
3.14761e-08
2.7151e-08
3.26825e-08
2.70051e-08
3.13436e-08
2.55662e-08
3.39394e-08
1.53323e-08
9.36719e-08
2.70333e-08
3.27835e-08
2.7942e-08
3.10415e-08
2.78418e-08
3.25909e-08
2.95723e-08
3.28026e-08
2.88718e-08
3.19444e-08
2.74859e-08
3.09502e-08
2.72516e-08
3.03905e-08
2.66461e-08
3.00804e-08
2.76367e-08
3.09972e-08
2.7451e-08
3.33755e-08
2.89622e-08
3.22618e-08
2.43138e-08
3.33971e-08
1.43139e-08
8.1441e-08
3.31987e-08
2.7038e-08
3.16398e-08
2.58961e-08
3.03745e-08
2.59813e-08
3.17035e-08
2.75746e-08
3.10832e-08
2.71191e-08
3.13536e-08
2.76521e-08
3.18e-08
2.67048e-08
3.11864e-08
2.64714e-08
3.16992e-08
2.6041e-08
3.10262e-08
2.7316e-08
3.27487e-08
2.73665e-08
3.16746e-08
2.64659e-08
3.3594e-08
1.54204e-08
8.63473e-08
2.74667e-08
3.37204e-08
2.7333e-08
3.10755e-08
2.59034e-08
3.23475e-08
2.88418e-08
3.14318e-08
2.93871e-08
3.21675e-08
2.93674e-08
3.22054e-08
2.79553e-08
3.10063e-08
2.66872e-08
3.05428e-08
2.66378e-08
3.0578e-08
2.69603e-08
3.11964e-08
2.79888e-08
3.24228e-08
2.8432e-08
3.19413e-08
2.5833e-08
3.3551e-08
1.5837e-08
8.36358e-08
3.22511e-08
2.74377e-08
3.28385e-08
2.71773e-08
3.17888e-08
2.73346e-08
3.10885e-08
2.78366e-08
3.18969e-08
2.73161e-08
3.16978e-08
2.74051e-08
3.11858e-08
2.73533e-08
3.23172e-08
2.73468e-08
3.11881e-08
2.62142e-08
3.19487e-08
2.66616e-08
3.13296e-08
2.84461e-08
3.29136e-08
2.80658e-08
3.25209e-08
2.58857e-08
3.29305e-08
1.62474e-08
8.55272e-08
2.76208e-08
3.18308e-08
2.59128e-08
3.09046e-08
2.55802e-08
3.1224e-08
2.81543e-08
3.11752e-08
2.85843e-08
3.09743e-08
2.99061e-08
3.27064e-08
2.97532e-08
3.26356e-08
2.81956e-08
3.08779e-08
2.69961e-08
3.06858e-08
2.60702e-08
3.04861e-08
2.68808e-08
3.08142e-08
2.88876e-08
3.26639e-08
2.82195e-08
3.25063e-08
2.56577e-08
3.32958e-08
1.6025e-08
8.27539e-08
3.14011e-08
2.83943e-08
3.33018e-08
2.68338e-08
3.18406e-08
2.70442e-08
2.98828e-08
2.84155e-08
3.19216e-08
2.88305e-08
3.2486e-08
2.78506e-08
3.17754e-08
2.76788e-08
3.20787e-08
2.78313e-08
3.23467e-08
2.7314e-08
3.11768e-08
2.68662e-08
3.23632e-08
2.74233e-08
3.05845e-08
2.84551e-08
3.29707e-08
2.81452e-08
3.23976e-08
2.69073e-08
3.25882e-08
1.63026e-08
8.37319e-08
2.67858e-08
3.06231e-08
2.68685e-08
3.0197e-08
2.68421e-08
3.15049e-08
2.87633e-08
3.13116e-08
2.86644e-08
3.04341e-08
2.93451e-08
3.08947e-08
3.02876e-08
3.24204e-08
3.01335e-08
3.26778e-08
2.83658e-08
3.08646e-08
2.73283e-08
3.11061e-08
2.70015e-08
3.05836e-08
2.76439e-08
3.12001e-08
2.85847e-08
3.35964e-08
2.85856e-08
3.26932e-08
2.73877e-08
3.29149e-08
1.54833e-08
8.17206e-08
3.16213e-08
2.69772e-08
3.19833e-08
2.77987e-08
3.02284e-08
2.56942e-08
2.90502e-08
2.82896e-08
2.90795e-08
2.87878e-08
3.09694e-08
2.84044e-08
3.22721e-08
2.84352e-08
3.19916e-08
2.77543e-08
3.16155e-08
2.86503e-08
3.23321e-08
2.80315e-08
3.17522e-08
2.70667e-08
3.11616e-08
2.70444e-08
3.03645e-08
2.80115e-08
3.33338e-08
2.922e-08
3.20875e-08
2.68549e-08
3.28108e-08
1.64872e-08
8.22564e-08
2.6832e-08
3.07969e-08
2.81238e-08
2.91298e-08
2.78723e-08
3.12826e-08
2.97763e-08
3.01348e-08
2.98762e-08
3.07784e-08
2.96821e-08
3.08452e-08
2.98348e-08
3.07485e-08
3.0411e-08
3.23137e-08
3.02242e-08
3.22483e-08
2.89628e-08
3.1029e-08
2.75106e-08
3.09986e-08
2.7386e-08
3.11214e-08
2.81989e-08
3.09994e-08
2.81924e-08
3.39284e-08
2.98929e-08
3.26435e-08
2.65567e-08
3.30268e-08
1.59071e-08
8.13733e-08
3.18019e-08
2.64921e-08
3.11871e-08
2.72427e-08
2.98056e-08
2.62391e-08
2.88891e-08
2.83546e-08
2.86739e-08
2.85535e-08
2.94859e-08
2.94432e-08
3.06631e-08
2.89818e-08
3.1688e-08
2.87923e-08
3.14371e-08
2.8028e-08
3.16919e-08
2.87163e-08
3.25951e-08
2.75789e-08
3.15392e-08
2.7323e-08
3.07793e-08
2.73461e-08
3.0706e-08
2.76164e-08
3.35281e-08
2.97145e-08
3.2284e-08
2.71104e-08
3.27236e-08
1.71325e-08
8.12478e-08
2.68855e-08
3.11353e-08
2.78147e-08
2.94238e-08
2.70823e-08
2.99919e-08
2.93056e-08
2.89631e-08
2.96516e-08
2.93619e-08
3.0146e-08
3.07279e-08
2.97075e-08
3.05891e-08
3.02522e-08
3.07287e-08
3.03114e-08
3.21847e-08
3.05332e-08
3.24141e-08
2.87518e-08
3.10849e-08
2.75443e-08
3.10334e-08
2.76058e-08
3.07422e-08
2.76511e-08
3.14553e-08
2.85136e-08
3.30696e-08
2.96936e-08
3.2834e-08
2.67436e-08
3.25657e-08
1.66165e-08
7.95649e-08
3.1972e-08
2.66149e-08
3.12329e-08
2.65623e-08
2.95836e-08
2.74146e-08
2.91509e-08
2.8877e-08
2.83827e-08
2.81407e-08
2.89719e-08
2.83301e-08
2.97327e-08
2.9356e-08
3.03448e-08
2.91461e-08
3.1029e-08
2.88642e-08
3.16695e-08
2.83625e-08
3.14116e-08
2.87577e-08
3.20082e-08
2.85093e-08
3.1372e-08
2.74102e-08
3.07141e-08
2.7243e-08
3.11374e-08
2.95909e-08
3.3269e-08
2.97891e-08
3.22888e-08
2.78829e-08
3.22788e-08
1.79318e-08
8.09499e-08
2.7542e-08
3.09136e-08
2.73076e-08
3.01199e-08
2.60115e-08
2.95055e-08
2.9082e-08
2.83838e-08
2.87528e-08
2.83703e-08
2.91593e-08
2.96278e-08
2.99863e-08
3.0274e-08
2.96542e-08
3.07285e-08
3.06465e-08
3.04674e-08
3.02377e-08
3.1783e-08
3.03926e-08
3.22627e-08
2.95407e-08
3.14137e-08
2.82618e-08
3.07665e-08
2.77034e-08
3.10939e-08
2.75113e-08
3.07312e-08
2.88629e-08
3.24483e-08
2.96441e-08
3.35726e-08
2.73516e-08
3.21118e-08
1.66021e-08
7.88333e-08
3.24217e-08
2.72636e-08
3.03691e-08
2.64244e-08
3.0421e-08
2.86543e-08
2.9379e-08
2.98834e-08
2.92013e-08
2.88588e-08
2.82944e-08
2.86662e-08
2.93206e-08
2.83984e-08
2.94638e-08
2.9453e-08
3.01837e-08
2.93549e-08
3.10605e-08
2.91957e-08
3.17571e-08
2.86268e-08
3.14711e-08
2.91253e-08
3.14164e-08
2.81285e-08
3.14779e-08
2.78245e-08
3.13552e-08
2.7802e-08
3.05652e-08
2.89784e-08
3.25097e-08
2.91716e-08
3.34407e-08
2.77135e-08
3.25957e-08
1.78439e-08
7.93411e-08
2.85612e-08
3.16126e-08
2.67111e-08
3.02327e-08
2.63981e-08
2.941e-08
2.90598e-08
2.92004e-08
2.86948e-08
2.8473e-08
2.91619e-08
2.84613e-08
2.93419e-08
2.93542e-08
3.00723e-08
3.05598e-08
2.97508e-08
3.02515e-08
3.007e-08
3.05716e-08
3.0074e-08
3.14583e-08
3.0521e-08
3.21073e-08
2.99359e-08
3.10576e-08
2.88851e-08
3.059e-08
2.82355e-08
3.13821e-08
2.8204e-08
3.18686e-08
2.86416e-08
3.33597e-08
2.90254e-08
3.35264e-08
2.69651e-08
3.3269e-08
1.68299e-08
7.65727e-08
3.25939e-08
2.8481e-08
3.10293e-08
2.7e-08
3.1389e-08
2.97477e-08
2.94393e-08
3.11178e-08
2.91707e-08
3.00974e-08
2.91486e-08
2.9224e-08
2.87951e-08
2.8859e-08
2.97274e-08
2.85802e-08
2.95215e-08
2.95071e-08
3.02908e-08
2.92936e-08
3.08019e-08
2.93679e-08
3.1324e-08
2.90331e-08
3.16988e-08
2.91806e-08
3.11271e-08
2.84025e-08
3.1092e-08
2.7851e-08
3.13029e-08
2.75066e-08
3.07733e-08
2.87191e-08
3.26173e-08
2.89424e-08
3.29345e-08
2.65879e-08
3.24465e-08
1.80754e-08
7.74041e-08
2.91849e-08
3.17695e-08
2.61383e-08
3.01673e-08
2.68737e-08
2.93654e-08
2.94114e-08
2.94244e-08
2.91482e-08
2.87946e-08
2.89779e-08
2.90133e-08
2.912e-08
2.87282e-08
2.92302e-08
2.94314e-08
3.02118e-08
3.01815e-08
2.96017e-08
3.01347e-08
2.9614e-08
3.02505e-08
3.02366e-08
3.12298e-08
3.09091e-08
3.20176e-08
3.06817e-08
3.14453e-08
2.90718e-08
3.07724e-08
2.84708e-08
3.13679e-08
2.81031e-08
3.17123e-08
2.82885e-08
3.32142e-08
2.84821e-08
3.45271e-08
2.64034e-08
3.31666e-08
1.68551e-08
7.60557e-08
3.25757e-08
2.89022e-08
3.20964e-08
2.8351e-08
3.2028e-08
3.04428e-08
2.95725e-08
3.11344e-08
2.90916e-08
3.07439e-08
2.92492e-08
3.00334e-08
2.95061e-08
2.95373e-08
3.01012e-08
2.89208e-08
2.94161e-08
2.87556e-08
2.93664e-08
2.95144e-08
3.02545e-08
2.90643e-08
3.09013e-08
2.94432e-08
3.15299e-08
2.93115e-08
3.17251e-08
2.92381e-08
3.14357e-08
2.88097e-08
3.0997e-08
2.78416e-08
3.11655e-08
2.77388e-08
3.116e-08
2.79069e-08
3.31387e-08
2.8395e-08
3.50886e-08
2.62807e-08
3.32793e-08
1.82198e-08
7.6087e-08
2.93221e-08
3.24285e-08
2.72165e-08
3.0332e-08
2.71722e-08
2.91571e-08
2.94228e-08
2.94943e-08
2.95988e-08
2.91702e-08
2.85872e-08
2.93699e-08
2.88545e-08
2.88714e-08
2.91467e-08
2.79413e-08
2.97096e-08
2.91502e-08
2.99718e-08
2.96091e-08
2.92284e-08
3.04096e-08
2.98619e-08
3.00629e-08
3.04242e-08
3.12186e-08
3.08668e-08
3.15199e-08
3.05642e-08
3.12963e-08
2.94014e-08
3.09501e-08
2.88549e-08
3.14813e-08
2.84879e-08
3.13924e-08
2.81946e-08
3.36241e-08
2.83324e-08
3.46498e-08
2.62621e-08
3.38519e-08
1.72604e-08
7.5099e-08
3.22908e-08
2.89083e-08
3.24223e-08
2.88567e-08
3.17273e-08
3.0819e-08
2.95381e-08
3.07222e-08
2.95066e-08
3.00784e-08
2.95811e-08
3.04833e-08
2.93678e-08
3.02956e-08
2.92472e-08
2.95285e-08
2.96546e-08
2.89863e-08
2.96837e-08
2.91106e-08
2.94649e-08
2.93268e-08
3.00861e-08
2.9371e-08
3.05664e-08
2.94847e-08
3.14137e-08
2.96899e-08
3.17901e-08
2.96732e-08
3.13091e-08
2.85146e-08
3.11874e-08
2.79623e-08
3.10916e-08
2.75881e-08
3.13973e-08
2.72756e-08
3.36659e-08
2.79858e-08
3.50174e-08
2.62975e-08
3.33273e-08
1.84405e-08
7.50559e-08
2.87483e-08
3.31787e-08
2.80429e-08
3.06458e-08
2.76998e-08
2.90591e-08
2.9391e-08
2.95438e-08
2.84903e-08
2.91102e-08
2.85325e-08
2.91062e-08
2.83717e-08
2.96361e-08
2.92096e-08
2.91157e-08
2.97473e-08
2.86381e-08
3.03121e-08
2.84841e-08
2.96487e-08
2.9365e-08
2.96006e-08
3.0225e-08
2.98434e-08
3.0096e-08
3.08457e-08
3.1338e-08
3.11169e-08
3.15502e-08
3.04408e-08
3.12291e-08
2.95625e-08
3.10505e-08
2.91445e-08
3.16968e-08
2.81649e-08
3.16846e-08
2.82612e-08
3.34135e-08
2.85605e-08
3.44754e-08
2.61195e-08
3.33548e-08
1.71494e-08
7.42723e-08
3.25489e-08
2.92392e-08
3.20693e-08
2.9144e-08
3.10701e-08
3.04699e-08
2.89419e-08
3.04225e-08
3.05205e-08
2.99381e-08
2.89606e-08
2.98503e-08
2.92873e-08
3.03643e-08
2.94954e-08
2.96504e-08
2.98456e-08
2.92708e-08
2.98342e-08
2.84471e-08
2.9643e-08
2.90769e-08
2.91542e-08
2.9164e-08
2.98043e-08
2.93204e-08
3.0484e-08
2.96394e-08
3.14069e-08
2.95437e-08
3.19485e-08
2.96163e-08
3.11278e-08
2.83667e-08
3.11497e-08
2.79408e-08
3.13882e-08
2.78738e-08
3.16876e-08
2.72651e-08
3.37405e-08
2.75089e-08
3.51608e-08
2.6275e-08
3.40348e-08
1.82581e-08
7.42688e-08
2.8425e-08
3.30654e-08
2.82892e-08
2.99769e-08
2.7896e-08
2.87162e-08
2.92817e-08
2.92022e-08
2.92427e-08
2.86269e-08
2.82277e-08
2.91282e-08
2.87317e-08
2.89167e-08
2.90735e-08
2.97512e-08
2.94919e-08
2.94363e-08
2.96172e-08
2.88871e-08
3.01044e-08
2.85508e-08
2.96316e-08
2.93028e-08
2.9442e-08
2.99528e-08
2.97762e-08
2.97388e-08
3.06175e-08
3.09505e-08
3.10464e-08
3.15019e-08
3.10237e-08
3.15763e-08
2.98083e-08
3.08865e-08
2.92985e-08
3.18168e-08
2.78451e-08
3.19258e-08
2.79468e-08
3.42419e-08
2.79935e-08
3.59116e-08
2.67655e-08
3.45249e-08
1.72483e-08
7.32851e-08
3.2243e-08
2.97515e-08
3.1859e-08
2.84411e-08
3.01659e-08
2.98384e-08
2.85717e-08
3.00053e-08
2.94031e-08
2.93585e-08
2.92177e-08
3.02428e-08
2.89266e-08
3.01565e-08
2.9236e-08
3.03755e-08
2.9243e-08
2.98938e-08
2.94313e-08
2.94402e-08
2.96097e-08
2.91453e-08
2.96288e-08
2.91855e-08
2.92877e-08
2.92642e-08
2.98278e-08
2.93301e-08
3.05163e-08
2.9627e-08
3.11086e-08
2.98689e-08
3.17216e-08
2.9237e-08
3.08021e-08
2.87291e-08
3.12333e-08
2.8049e-08
3.1373e-08
2.8075e-08
3.1862e-08
2.73675e-08
3.41894e-08
2.76769e-08
3.56164e-08
2.58416e-08
3.39149e-08
1.86503e-08
7.25173e-08
2.83962e-08
3.19965e-08
2.75939e-08
2.96188e-08
2.85298e-08
2.84174e-08
2.95676e-08
2.91202e-08
3.02017e-08
2.90269e-08
2.94834e-08
2.88662e-08
2.82611e-08
2.89592e-08
2.87298e-08
2.92267e-08
2.86489e-08
2.94612e-08
2.95267e-08
2.95778e-08
2.94431e-08
2.90071e-08
2.92298e-08
2.89058e-08
3.00374e-08
2.91004e-08
2.91158e-08
2.98137e-08
2.97829e-08
2.97528e-08
3.04728e-08
3.07419e-08
3.11503e-08
3.15079e-08
3.0942e-08
3.13104e-08
2.98083e-08
3.10705e-08
2.93513e-08
3.17063e-08
2.74401e-08
3.19905e-08
2.7864e-08
3.39593e-08
2.83796e-08
3.51788e-08
2.59316e-08
3.4296e-08
1.7742e-08
7.16337e-08
3.24653e-08
2.991e-08
3.17523e-08
2.74608e-08
2.99249e-08
2.9042e-08
2.83561e-08
2.95243e-08
2.97077e-08
2.93187e-08
2.92968e-08
2.96033e-08
2.9508e-08
3.00339e-08
2.90041e-08
2.98325e-08
2.98669e-08
3.00661e-08
2.94011e-08
2.97911e-08
2.95988e-08
2.9615e-08
2.94668e-08
2.91744e-08
2.95776e-08
2.86165e-08
2.92484e-08
2.94487e-08
2.98479e-08
2.93386e-08
3.03947e-08
2.96403e-08
3.07946e-08
3.01643e-08
3.15876e-08
2.94435e-08
3.10816e-08
2.87908e-08
3.1105e-08
2.85074e-08
3.15457e-08
2.8104e-08
3.14411e-08
2.74523e-08
3.35637e-08
2.86849e-08
3.58321e-08
2.63519e-08
3.42599e-08
1.89201e-08
7.17633e-08
2.84602e-08
3.11954e-08
2.82063e-08
3.00668e-08
2.90927e-08
2.77161e-08
2.96629e-08
2.90461e-08
3.0191e-08
2.95097e-08
2.98564e-08
2.89297e-08
2.89744e-08
2.8927e-08
2.84034e-08
2.94675e-08
2.85632e-08
2.94166e-08
2.8671e-08
2.94312e-08
2.92165e-08
2.94272e-08
2.95068e-08
2.89415e-08
2.97748e-08
2.87083e-08
2.99732e-08
2.92335e-08
2.93885e-08
2.96073e-08
2.99061e-08
2.98768e-08
3.02716e-08
3.09175e-08
3.08866e-08
3.12283e-08
3.0396e-08
3.12932e-08
3.00237e-08
3.11098e-08
2.9291e-08
3.1467e-08
2.84188e-08
3.18543e-08
2.79016e-08
3.36058e-08
2.82458e-08
3.606e-08
2.56733e-08
3.43011e-08
1.7948e-08
7.07897e-08
3.19916e-08
2.95521e-08
3.12299e-08
2.6939e-08
2.9898e-08
2.83805e-08
2.88712e-08
2.94711e-08
2.98202e-08
2.95591e-08
2.93085e-08
2.94416e-08
2.90871e-08
2.94259e-08
2.92911e-08
2.97174e-08
2.88769e-08
2.99206e-08
2.93569e-08
3.0194e-08
2.9588e-08
2.99877e-08
2.97462e-08
2.96876e-08
2.92964e-08
2.92374e-08
2.95178e-08
2.87708e-08
2.89992e-08
2.93526e-08
2.98078e-08
2.96277e-08
3.05533e-08
2.97407e-08
3.09969e-08
3.00623e-08
3.15087e-08
2.97045e-08
3.11403e-08
2.89058e-08
3.11282e-08
2.85886e-08
3.11352e-08
2.79964e-08
3.15748e-08
2.83314e-08
3.35447e-08
2.83896e-08
3.61112e-08
2.61893e-08
3.41095e-08
1.90014e-08
7.07425e-08
2.84776e-08
3.0743e-08
2.78985e-08
3.05106e-08
2.93804e-08
2.70248e-08
2.97927e-08
2.8886e-08
2.99817e-08
2.95303e-08
3.03361e-08
2.96346e-08
2.95864e-08
2.92189e-08
2.89032e-08
2.89301e-08
2.84928e-08
2.93932e-08
2.90132e-08
2.93511e-08
2.91227e-08
2.97965e-08
2.92607e-08
2.9003e-08
2.94569e-08
2.90247e-08
2.94052e-08
2.85152e-08
2.93972e-08
2.90672e-08
2.96206e-08
2.95357e-08
2.98146e-08
2.99365e-08
3.07945e-08
3.07717e-08
3.08984e-08
3.1234e-08
3.08074e-08
3.15147e-08
3.00201e-08
3.12084e-08
2.97635e-08
3.15545e-08
2.8829e-08
3.12286e-08
2.90978e-08
3.36018e-08
2.82531e-08
3.52123e-08
2.6338e-08
3.47795e-08
1.83291e-08
6.98291e-08
3.20173e-08
2.94059e-08
3.17343e-08
2.70787e-08
2.91872e-08
2.7901e-08
2.9571e-08
2.95229e-08
3.01882e-08
3.00838e-08
3.01625e-08
2.97262e-08
3.00345e-08
2.96983e-08
2.96088e-08
2.9705e-08
2.89528e-08
3.02354e-08
2.89238e-08
2.94353e-08
2.97135e-08
2.98633e-08
2.95858e-08
3.00948e-08
2.97574e-08
2.97448e-08
2.94553e-08
2.94357e-08
2.94306e-08
2.92299e-08
2.91345e-08
2.93873e-08
2.97349e-08
2.98124e-08
3.02067e-08
2.99187e-08
3.08421e-08
3.03445e-08
3.1298e-08
2.98354e-08
3.12346e-08
2.93107e-08
3.08149e-08
2.90142e-08
3.1266e-08
2.8579e-08
3.0944e-08
2.77891e-08
3.33552e-08
2.83265e-08
3.71924e-08
2.59536e-08
3.43107e-08
1.93689e-08
7.05927e-08
2.85908e-08
3.02362e-08
2.82424e-08
3.0545e-08
2.9448e-08
2.69682e-08
3.0046e-08
2.87912e-08
2.97564e-08
2.96684e-08
3.01401e-08
3.00068e-08
3.00161e-08
2.92908e-08
2.94929e-08
2.9557e-08
2.9281e-08
2.88264e-08
2.83743e-08
2.94179e-08
2.9037e-08
2.93702e-08
2.92958e-08
2.94794e-08
2.98244e-08
2.94365e-08
2.92269e-08
2.8838e-08
2.95794e-08
2.91484e-08
2.94329e-08
2.9169e-08
2.94769e-08
2.98315e-08
2.97569e-08
2.9899e-08
3.07778e-08
3.05622e-08
3.0781e-08
3.14267e-08
3.08814e-08
3.11844e-08
3.00895e-08
3.11723e-08
2.96561e-08
3.1198e-08
2.92117e-08
3.14275e-08
2.91181e-08
3.36882e-08
2.83026e-08
3.53961e-08
2.64914e-08
3.49877e-08
1.8047e-08
6.9247e-08
3.18183e-08
2.85258e-08
3.04076e-08
2.78929e-08
2.94403e-08
2.84141e-08
3.01703e-08
2.9437e-08
3.02585e-08
3.01876e-08
3.08648e-08
2.99755e-08
2.99133e-08
2.97006e-08
3.00622e-08
2.93919e-08
2.94898e-08
3.01836e-08
2.95271e-08
2.9677e-08
2.94034e-08
2.97808e-08
2.8825e-08
3.04595e-08
2.90742e-08
2.97338e-08
2.97537e-08
2.94584e-08
2.92655e-08
2.93451e-08
2.88801e-08
2.94778e-08
2.87885e-08
2.93474e-08
2.93031e-08
2.97583e-08
3.04672e-08
2.99874e-08
3.10152e-08
3.02773e-08
3.12181e-08
2.97826e-08
3.11162e-08
2.95676e-08
3.11071e-08
2.90942e-08
3.0966e-08
2.83011e-08
3.10674e-08
2.75498e-08
3.3559e-08
2.78234e-08
3.84577e-08
2.5897e-08
3.46228e-08
1.94538e-08
6.91744e-08
2.91526e-08
3.09566e-08
2.74572e-08
3.06555e-08
2.89402e-08
2.66226e-08
2.96643e-08
2.82814e-08
2.94731e-08
2.92806e-08
2.99851e-08
2.98531e-08
2.96564e-08
2.98581e-08
2.95881e-08
2.95582e-08
2.94644e-08
2.84352e-08
2.91157e-08
2.89607e-08
2.87089e-08
2.88057e-08
2.9184e-08
2.97064e-08
2.94624e-08
2.97964e-08
3.04408e-08
2.91274e-08
2.93633e-08
2.92404e-08
2.93176e-08
2.90286e-08
2.95778e-08
2.89124e-08
2.95077e-08
2.95985e-08
2.99572e-08
3.00112e-08
3.04117e-08
3.0791e-08
3.10685e-08
3.12223e-08
3.0911e-08
3.11312e-08
3.04876e-08
3.08117e-08
2.99369e-08
3.14251e-08
2.91932e-08
3.14822e-08
2.89672e-08
3.41278e-08
2.84787e-08
3.45472e-08
2.59715e-08
3.50131e-08
1.87313e-08
6.88075e-08
3.16956e-08
2.86879e-08
3.08337e-08
2.88879e-08
2.93463e-08
2.90939e-08
3.05855e-08
2.93356e-08
2.98474e-08
3.00825e-08
3.10752e-08
2.96071e-08
3.08355e-08
2.96107e-08
3.00189e-08
2.9396e-08
2.93331e-08
2.93981e-08
3.01257e-08
2.98582e-08
2.93413e-08
2.97984e-08
2.8835e-08
2.93207e-08
2.96319e-08
3.03641e-08
2.91236e-08
2.96694e-08
2.99412e-08
2.96261e-08
2.94103e-08
2.92324e-08
2.90519e-08
2.95627e-08
2.92396e-08
2.9463e-08
2.94765e-08
2.94536e-08
3.01196e-08
3.00522e-08
3.08718e-08
3.01264e-08
3.14229e-08
3.01184e-08
3.10998e-08
2.95479e-08
3.11755e-08
2.90149e-08
3.10819e-08
2.85816e-08
3.09193e-08
2.8084e-08
3.39963e-08
2.81906e-08
3.77042e-08
2.69136e-08
3.44184e-08
1.96138e-08
6.85951e-08
2.93436e-08
3.03755e-08
2.7836e-08
3.03057e-08
2.8678e-08
2.68887e-08
2.96741e-08
2.77937e-08
2.90957e-08
2.89163e-08
2.94096e-08
2.96591e-08
2.96478e-08
3.0236e-08
2.95182e-08
2.93023e-08
2.96516e-08
2.9416e-08
2.92768e-08
2.86391e-08
2.89984e-08
2.91369e-08
2.92199e-08
2.94599e-08
2.88913e-08
2.93481e-08
2.96774e-08
2.99483e-08
3.01993e-08
2.93193e-08
2.9212e-08
2.90042e-08
2.94985e-08
2.88588e-08
2.95775e-08
2.91465e-08
2.97891e-08
2.93891e-08
2.99394e-08
3.03777e-08
3.05149e-08
3.08857e-08
3.1071e-08
3.10454e-08
3.07718e-08
3.09581e-08
3.04105e-08
3.0942e-08
2.99453e-08
3.16552e-08
2.92908e-08
3.13079e-08
2.88925e-08
3.43111e-08
2.93685e-08
3.45201e-08
2.64063e-08
3.55294e-08
1.83042e-08
6.72913e-08
3.1754e-08
2.88961e-08
2.99346e-08
2.94974e-08
2.96901e-08
2.96229e-08
3.04903e-08
2.87746e-08
2.97096e-08
2.96206e-08
3.11769e-08
2.97791e-08
3.06012e-08
2.9926e-08
3.03136e-08
2.97005e-08
3.01541e-08
2.95994e-08
2.96327e-08
2.96756e-08
2.93289e-08
2.99382e-08
2.93566e-08
2.93778e-08
2.89411e-08
2.99922e-08
2.96067e-08
3.03364e-08
2.90797e-08
2.98793e-08
3.07153e-08
2.99731e-08
2.94922e-08
2.91167e-08
2.88982e-08
2.94558e-08
2.90108e-08
2.93517e-08
2.94243e-08
2.93807e-08
3.00299e-08
3.00399e-08
3.06053e-08
3.01352e-08
3.13953e-08
3.04675e-08
3.10416e-08
2.93622e-08
3.10797e-08
2.90812e-08
3.10712e-08
2.84602e-08
3.08784e-08
2.83246e-08
3.38383e-08
2.83365e-08
3.77259e-08
2.65607e-08
3.44385e-08
2.02519e-08
6.71193e-08
2.95014e-08
3.06235e-08
2.78322e-08
3.07782e-08
2.88831e-08
2.73505e-08
2.95073e-08
2.73132e-08
2.90238e-08
2.91708e-08
2.86103e-08
2.95504e-08
2.96054e-08
3.02061e-08
2.98252e-08
2.99487e-08
2.92844e-08
2.92228e-08
2.93817e-08
2.9164e-08
2.90407e-08
2.92029e-08
2.84077e-08
2.9083e-08
2.90072e-08
2.94612e-08
2.92882e-08
2.97895e-08
2.96024e-08
2.9463e-08
3.00502e-08
2.89857e-08
2.92803e-08
2.87949e-08
2.96184e-08
2.88588e-08
2.93178e-08
2.89485e-08
2.9845e-08
2.94265e-08
2.99405e-08
3.01921e-08
3.05348e-08
3.07778e-08
3.1136e-08
3.12084e-08
3.06557e-08
3.08898e-08
3.0635e-08
3.12297e-08
2.97354e-08
3.17567e-08
2.90954e-08
3.15176e-08
2.87075e-08
3.32545e-08
2.99603e-08
3.46011e-08
2.70336e-08
3.51787e-08
1.96045e-08
6.6521e-08
3.1748e-08
2.94383e-08
3.02526e-08
3.03694e-08
2.97063e-08
2.9548e-08
2.99678e-08
2.82369e-08
2.94145e-08
2.93184e-08
3.04244e-08
2.96073e-08
3.10263e-08
2.93947e-08
3.08275e-08
3.01131e-08
3.07333e-08
2.96028e-08
3.00017e-08
2.98157e-08
3.00429e-08
2.92839e-08
2.9425e-08
2.95296e-08
2.94409e-08
2.96787e-08
2.90766e-08
2.99435e-08
2.9201e-08
3.04712e-08
2.98016e-08
3.00017e-08
3.04443e-08
2.98364e-08
2.98434e-08
2.91366e-08
2.92479e-08
2.95291e-08
2.90701e-08
2.89622e-08
2.92432e-08
2.95801e-08
3.02506e-08
2.99553e-08
3.07623e-08
3.04015e-08
3.13089e-08
3.04388e-08
3.09456e-08
2.95187e-08
3.10066e-08
2.94642e-08
3.13985e-08
2.85855e-08
3.08555e-08
2.87423e-08
3.39119e-08
2.83101e-08
3.70494e-08
2.6444e-08
3.40201e-08
2.03176e-08
6.67446e-08
2.94833e-08
3.07475e-08
2.73222e-08
3.07053e-08
2.86733e-08
2.76744e-08
2.93244e-08
2.71539e-08
2.89918e-08
2.91128e-08
2.85542e-08
2.97785e-08
2.91461e-08
3.01859e-08
3.0145e-08
3.02066e-08
2.94368e-08
2.96941e-08
2.93034e-08
2.93298e-08
2.9149e-08
2.91879e-08
2.92706e-08
2.8766e-08
2.88359e-08
2.87943e-08
2.89627e-08
2.94094e-08
2.92129e-08
2.97511e-08
2.95695e-08
2.98788e-08
3.03204e-08
2.94227e-08
2.95984e-08
2.92962e-08
2.96591e-08
2.92853e-08
2.94849e-08
2.89096e-08
2.98581e-08
2.94216e-08
2.96519e-08
2.99785e-08
3.04745e-08
3.07716e-08
3.11159e-08
3.10943e-08
3.08684e-08
3.0786e-08
3.07975e-08
3.10715e-08
2.99687e-08
3.16872e-08
2.91635e-08
3.17658e-08
2.88446e-08
3.37025e-08
3.00204e-08
3.4479e-08
2.77933e-08
3.61355e-08
1.88376e-08
6.51376e-08
3.16792e-08
2.9445e-08
3.03646e-08
3.08386e-08
2.98048e-08
2.93289e-08
2.96122e-08
2.79271e-08
2.90215e-08
2.91342e-08
2.97292e-08
2.94862e-08
3.04346e-08
3.007e-08
3.07796e-08
2.9908e-08
3.07068e-08
2.99835e-08
3.04621e-08
3.00712e-08
2.96533e-08
2.98067e-08
2.94666e-08
2.9436e-08
2.93299e-08
2.93143e-08
2.9338e-08
2.94693e-08
2.91868e-08
2.94273e-08
2.92103e-08
3.03577e-08
2.99747e-08
3.01516e-08
3.02432e-08
2.97216e-08
2.95175e-08
2.88598e-08
2.9116e-08
2.91644e-08
2.89749e-08
2.88388e-08
2.93985e-08
2.9535e-08
3.02163e-08
3.00163e-08
3.08137e-08
3.06871e-08
3.112e-08
3.07274e-08
3.09895e-08
2.97786e-08
3.12268e-08
2.96095e-08
3.1395e-08
2.8662e-08
3.09629e-08
2.84884e-08
3.37032e-08
2.89923e-08
3.70795e-08
2.61892e-08
3.4298e-08
2.09696e-08
6.53436e-08
2.95904e-08
3.10017e-08
2.75024e-08
3.07885e-08
2.86335e-08
2.80584e-08
2.92678e-08
2.71114e-08
2.8791e-08
2.93963e-08
2.85614e-08
2.94475e-08
2.85691e-08
2.99931e-08
2.87697e-08
2.99636e-08
2.9678e-08
3.05164e-08
2.95038e-08
2.94623e-08
2.93611e-08
2.92143e-08
2.94146e-08
2.92854e-08
2.9121e-08
2.9075e-08
2.88257e-08
2.9044e-08
2.90286e-08
2.94023e-08
2.95796e-08
2.97341e-08
2.94506e-08
2.99008e-08
3.03311e-08
2.96175e-08
2.98671e-08
2.93874e-08
2.98296e-08
2.86177e-08
3.0064e-08
2.89353e-08
2.99911e-08
2.91932e-08
2.9925e-08
2.97609e-08
3.04945e-08
3.08059e-08
3.12026e-08
3.10079e-08
3.08209e-08
3.06786e-08
3.04824e-08
3.12743e-08
3.03239e-08
3.15386e-08
2.96981e-08
3.14379e-08
2.94468e-08
3.36613e-08
3.04158e-08
3.58826e-08
2.92579e-08
3.59375e-08
2.01239e-08
6.42027e-08
3.17023e-08
2.96847e-08
3.04476e-08
3.05183e-08
2.99799e-08
2.93478e-08
2.9029e-08
2.74786e-08
2.85929e-08
2.89184e-08
2.94782e-08
2.88703e-08
3.00236e-08
2.92492e-08
3.02085e-08
2.93742e-08
3.07277e-08
2.9735e-08
2.98853e-08
2.99522e-08
2.98215e-08
2.98602e-08
2.98498e-08
2.93341e-08
2.95887e-08
2.92625e-08
2.93742e-08
2.9298e-08
2.91767e-08
2.96306e-08
2.90597e-08
2.95966e-08
2.89406e-08
3.02775e-08
2.96243e-08
2.98713e-08
3.01812e-08
2.98605e-08
2.94745e-08
2.92171e-08
2.96033e-08
2.86929e-08
2.92495e-08
2.90456e-08
2.91275e-08
2.95803e-08
3.01923e-08
3.02257e-08
3.09706e-08
3.07932e-08
3.13002e-08
3.07439e-08
3.13066e-08
2.95103e-08
3.11326e-08
2.97449e-08
3.12872e-08
2.89861e-08
3.10563e-08
2.86183e-08
3.39491e-08
2.87197e-08
3.63848e-08
2.5094e-08
3.42147e-08
2.1468e-08
6.38194e-08
2.95706e-08
3.09111e-08
2.79063e-08
3.09441e-08
2.91217e-08
2.81526e-08
2.90162e-08
2.72292e-08
2.87969e-08
2.98474e-08
2.85055e-08
2.95667e-08
2.84611e-08
2.95578e-08
2.8411e-08
3.01838e-08
2.95157e-08
3.00947e-08
3.00636e-08
3.00252e-08
2.94309e-08
2.9995e-08
2.93349e-08
2.95619e-08
2.92894e-08
2.91129e-08
2.94798e-08
2.91457e-08
2.9058e-08
2.89605e-08
2.85773e-08
2.92769e-08
2.91329e-08
2.97332e-08
2.94734e-08
3.02155e-08
3.04871e-08
2.95213e-08
3.00597e-08
2.91309e-08
2.97204e-08
2.85631e-08
2.9825e-08
2.89082e-08
2.96959e-08
2.92746e-08
2.95668e-08
2.97221e-08
3.03627e-08
3.08053e-08
3.09021e-08
3.1087e-08
3.09603e-08
3.09314e-08
3.04636e-08
3.12605e-08
3.03579e-08
3.14615e-08
2.97968e-08
3.14334e-08
2.95127e-08
3.35262e-08
3.17006e-08
3.57526e-08
2.9531e-08
3.62225e-08
1.98219e-08
6.29136e-08
3.15564e-08
2.97245e-08
3.02694e-08
3.06306e-08
2.95531e-08
2.92102e-08
2.86432e-08
2.75248e-08
2.83402e-08
2.8928e-08
2.90353e-08
2.8818e-08
2.94313e-08
2.90032e-08
2.98073e-08
2.94691e-08
2.99781e-08
2.97593e-08
3.04183e-08
2.94928e-08
3.07177e-08
2.95188e-08
3.00384e-08
2.94231e-08
2.94857e-08
2.96155e-08
2.97242e-08
2.90717e-08
2.92259e-08
2.9214e-08
2.91535e-08
2.93028e-08
2.91896e-08
2.96984e-08
2.88746e-08
3.02806e-08
2.96509e-08
2.9881e-08
3.02316e-08
3.00114e-08
2.9385e-08
2.91562e-08
2.94217e-08
2.87888e-08
2.91287e-08
2.92129e-08
2.92532e-08
2.95847e-08
2.9997e-08
3.02579e-08
3.09198e-08
3.11054e-08
3.11456e-08
3.09135e-08
3.10646e-08
2.9675e-08
3.13586e-08
2.9673e-08
3.1588e-08
2.90499e-08
3.11099e-08
2.89087e-08
3.36459e-08
2.92482e-08
3.77098e-08
2.53029e-08
3.51968e-08
2.10661e-08
6.3255e-08
2.96134e-08
3.1131e-08
2.81958e-08
3.02469e-08
2.96203e-08
2.84121e-08
2.88397e-08
2.7471e-08
2.84512e-08
2.99418e-08
2.86881e-08
3.01294e-08
2.86485e-08
2.93017e-08
2.85931e-08
2.9431e-08
2.93582e-08
3.00156e-08
2.96561e-08
3.00962e-08
2.99811e-08
2.98648e-08
2.94966e-08
2.95094e-08
2.96528e-08
2.96238e-08
2.90761e-08
2.91289e-08
2.91805e-08
2.92153e-08
2.93213e-08
2.88869e-08
2.8814e-08
2.92635e-08