/*--------------------------------*- C++ -*----------------------------------*\
| =========                 |                                                 |
| \\      /  F ield         | OpenFOAM: The Open Source CFD Toolbox           |
|  \\    /   O peration     | Version:  2206                                  |
|   \\  /    A nd           | Website:  www.openfoam.com                      |
|    \\/     M anipulation  |                                                 |
\*---------------------------------------------------------------------------*/
FoamFile
{
    version     2.0;
    format      ascii;
    arch        "LSB;label=32;scalar=64";
    class       volScalarField;
    location    "170";
    object      nuTildaMean;
}
// * * * * * * * * * * * * * * * * * * * * * * * * * * * * * * * * * * * * * //

dimensions      [0 2 -1 0 0 0 0];

internalField   nonuniform List<scalar> 
93840
(
4.35219e-07
3.13752e-07
4.36653e-07
4.03163e-07
3.12819e-07
4.28126e-07
3.76883e-07
4.14582e-07
3.40294e-07
4.20101e-07
4.107e-07
3.84605e-07
4.1034e-07
3.52806e-07
4.23964e-07
3.89899e-07
4.04251e-07
3.89296e-07
4.10614e-07
3.45111e-07
4.05662e-07
4.00531e-07
3.95322e-07
4.03857e-07
3.92132e-07
4.15362e-07
3.74321e-07
4.28931e-07
3.96702e-07
4.00214e-07
3.93602e-07
4.00196e-07
3.9436e-07
4.1147e-07
3.60047e-07
4.0589e-07
3.99794e-07
3.91334e-07
4.00314e-07
3.98416e-07
3.99379e-07
3.96e-07
4.05679e-07
3.6652e-07
4.27858e-07
3.97036e-07
4.05863e-07
3.96991e-07
3.99003e-07
3.97785e-07
3.98788e-07
3.92184e-07
4.05193e-07
3.59896e-07
4.12367e-07
3.99517e-07
3.93852e-07
4.00955e-07
3.95774e-07
4.00231e-07
3.98644e-07
3.99264e-07
3.96557e-07
4.04432e-07
3.73038e-07
4.29888e-07
3.96172e-07
4.00784e-07
3.95406e-07
4.01897e-07
3.98539e-07
3.98879e-07
3.97636e-07
4.00646e-07
3.92616e-07
3.99282e-07
3.68972e-07
4.13737e-07
3.99454e-07
3.946e-07
3.99864e-07
3.97249e-07
3.98902e-07
3.98843e-07
4.00416e-07
3.95328e-07
4.01559e-07
3.96287e-07
3.98615e-07
3.70939e-07
4.2238e-07
3.97967e-07
3.99936e-07
3.95948e-07
3.98217e-07
3.97756e-07
3.98635e-07
3.98211e-07
4.02152e-07
3.98263e-07
4.01641e-07
3.97159e-07
4.03228e-07
3.67823e-07
4.16732e-07
3.98154e-07
3.97313e-07
3.9982e-07
3.98508e-07
3.98469e-07
3.98386e-07
3.98692e-07
3.97299e-07
3.98334e-07
3.97075e-07
3.99224e-07
3.9495e-07
4.05169e-07
3.71919e-07
4.23206e-07
3.98195e-07
3.99029e-07
3.97416e-07
3.98325e-07
3.98258e-07
3.98532e-07
3.98578e-07
3.9944e-07
3.97713e-07
4.00547e-07
3.97803e-07
4.01597e-07
3.93363e-07
4.0157e-07
3.68825e-07
4.17743e-07
3.98302e-07
3.97041e-07
3.99733e-07
3.98397e-07
3.98698e-07
3.98369e-07
3.98447e-07
3.98358e-07
3.99953e-07
3.97699e-07
3.99334e-07
3.97525e-07
3.99684e-07
3.95612e-07
4.02098e-07
3.7021e-07
4.21423e-07
3.981e-07
3.99094e-07
3.96348e-07
3.98432e-07
3.97449e-07
3.98447e-07
3.984e-07
3.98647e-07
3.97335e-07
3.99771e-07
3.97648e-07
3.99741e-07
3.9728e-07
4.02061e-07
3.95679e-07
4.03826e-07
3.69324e-07
4.1742e-07
3.98159e-07
3.97917e-07
3.994e-07
3.97459e-07
3.99286e-07
3.98334e-07
3.98828e-07
3.97715e-07
3.99595e-07
3.98257e-07
3.99357e-07
3.98006e-07
3.99409e-07
3.97166e-07
3.99018e-07
3.94089e-07
4.04716e-07
3.72007e-07
4.20714e-07
3.98241e-07
3.9845e-07
3.97535e-07
3.9959e-07
3.98007e-07
3.98278e-07
3.98378e-07
3.99616e-07
3.97927e-07
3.9895e-07
3.97736e-07
3.99394e-07
3.97556e-07
4.00374e-07
3.97993e-07
4.02139e-07
3.94492e-07
4.02225e-07
3.7133e-07
4.16765e-07
3.9831e-07
3.97953e-07
3.9871e-07
3.97901e-07
3.98792e-07
3.98417e-07
3.98626e-07
3.97771e-07
3.99507e-07
3.98511e-07
3.99498e-07
3.97389e-07
3.99983e-07
3.99084e-07
3.9954e-07
3.97314e-07
3.99499e-07
3.9662e-07
4.02567e-07
3.72699e-07
4.19976e-07
3.9811e-07
3.98459e-07
3.97813e-07
3.98436e-07
3.97664e-07
3.9829e-07
3.98492e-07
3.98901e-07
3.97748e-07
3.98578e-07
3.98002e-07
4.00243e-07
3.9764e-07
3.99324e-07
3.95973e-07
3.9946e-07
3.97574e-07
4.01541e-07
3.94026e-07
4.02919e-07
3.70057e-07
4.17277e-07
3.98444e-07
3.97905e-07
3.9836e-07
3.98177e-07
3.98571e-07
3.98379e-07
3.98591e-07
3.97655e-07
3.99619e-07
3.97622e-07
3.99462e-07
3.9726e-07
4.00082e-07
3.98605e-07
4.00017e-07
3.98641e-07
3.99819e-07
3.9659e-07
3.99562e-07
3.96325e-07
4.03623e-07
3.72637e-07
4.20798e-07
3.9799e-07
3.98577e-07
3.98257e-07
3.98896e-07
3.9808e-07
3.98263e-07
3.98414e-07
3.99861e-07
3.95897e-07
3.99252e-07
3.97954e-07
3.99566e-07
3.97056e-07
3.98616e-07
3.97055e-07
4.00326e-07
3.96426e-07
4.00629e-07
3.98156e-07
4.02073e-07
3.93558e-07
4.03415e-07
3.70788e-07
4.18532e-07
3.9825e-07
3.9788e-07
3.98392e-07
3.97438e-07
3.98498e-07
3.98382e-07
3.98463e-07
3.97978e-07
4.01686e-07
3.98353e-07
3.99575e-07
3.97681e-07
4.00179e-07
3.97903e-07
4.00243e-07
3.98188e-07
4.00039e-07
3.98186e-07
3.99722e-07
3.96041e-07
3.99689e-07
3.95849e-07
4.02351e-07
3.74149e-07
4.27571e-07
3.98009e-07
3.98575e-07
3.98222e-07
3.98647e-07
3.97945e-07
3.98444e-07
3.98294e-07
3.98517e-07
3.96662e-07
3.98775e-07
3.97246e-07
3.98986e-07
3.97182e-07
4.00203e-07
3.96988e-07
3.99103e-07
3.96821e-07
4.00109e-07
3.96997e-07
4.00401e-07
3.97755e-07
4.01772e-07
3.9396e-07
4.00775e-07
3.69147e-07
4.14925e-07
3.9845e-07
3.98239e-07
3.9846e-07
3.97713e-07
3.98483e-07
3.98272e-07
3.98339e-07
3.98391e-07
3.98801e-07
3.98366e-07
3.99392e-07
3.98235e-07
4.00122e-07
3.96908e-07
3.99584e-07
3.9874e-07
3.99371e-07
3.97497e-07
3.99916e-07
3.98319e-07
3.99617e-07
3.96461e-07
4.01561e-07
3.96557e-07
4.00684e-07
3.69867e-07
4.19583e-07
3.98039e-07
3.98397e-07
3.98289e-07
3.98954e-07
3.98375e-07
3.98706e-07
3.98314e-07
3.98926e-07
3.97935e-07
3.9945e-07
3.97447e-07
3.99251e-07
3.97203e-07
3.99624e-07
3.97198e-07
3.98546e-07
3.97676e-07
3.99485e-07
3.9827e-07
3.99215e-07
3.97338e-07
3.996e-07
3.97728e-07
4.01757e-07
3.95069e-07
4.01815e-07
3.73698e-07
4.17142e-07
3.98247e-07
3.98221e-07
3.98459e-07
3.9804e-07
3.9841e-07
3.97966e-07
3.98492e-07
3.97678e-07
3.99513e-07
3.97307e-07
3.99444e-07
3.97679e-07
3.99809e-07
3.97846e-07
4.00661e-07
3.97837e-07
3.99832e-07
3.98521e-07
3.99722e-07
3.98372e-07
4.00153e-07
3.98113e-07
3.99722e-07
3.96551e-07
4.00594e-07
3.96986e-07
4.01281e-07
3.73201e-07
4.20242e-07
3.98244e-07
3.98305e-07
3.9798e-07
3.98465e-07
3.98351e-07
3.98817e-07
3.98509e-07
3.99879e-07
3.9558e-07
3.9992e-07
3.97161e-07
3.99495e-07
3.97343e-07
3.99064e-07
3.97546e-07
3.99392e-07
3.97267e-07
3.98957e-07
3.97254e-07
3.99147e-07
3.96769e-07
3.99841e-07
3.9755e-07
4.00128e-07
3.98322e-07
4.00702e-07
3.95203e-07
4.02902e-07
3.717e-07
4.18187e-07
3.98661e-07
3.98127e-07
3.98688e-07
3.98467e-07
3.98506e-07
3.9791e-07
3.98351e-07
3.98077e-07
4.02211e-07
3.97836e-07
3.99867e-07
3.97413e-07
3.99792e-07
3.9796e-07
3.99869e-07
3.97736e-07
4.00292e-07
3.98905e-07
3.99812e-07
3.98686e-07
3.99713e-07
3.98549e-07
3.99597e-07
3.97759e-07
3.99388e-07
3.97226e-07
3.99888e-07
3.95724e-07
4.02233e-07
3.73808e-07
4.19903e-07
3.97765e-07
3.98449e-07
3.97717e-07
3.98435e-07
3.98259e-07
3.99411e-07
3.9843e-07
3.98664e-07
3.9644e-07
3.98719e-07
3.97428e-07
4.00392e-07
3.97228e-07
3.99211e-07
3.97395e-07
3.99781e-07
3.97493e-07
3.98832e-07
3.96713e-07
3.99369e-07
3.97956e-07
3.99439e-07
3.97144e-07
3.99945e-07
3.98286e-07
3.99818e-07
3.98309e-07
4.00934e-07
3.9559e-07
4.01078e-07
3.73509e-07
4.18452e-07
3.98467e-07
3.97959e-07
3.98611e-07
3.98368e-07
3.98301e-07
3.96483e-07
3.98285e-07
3.98428e-07
3.98852e-07
3.9814e-07
3.99459e-07
3.97187e-07
3.99766e-07
3.97777e-07
3.99389e-07
3.98423e-07
3.99014e-07
3.9789e-07
4.00147e-07
3.98911e-07
3.99083e-07
3.98194e-07
3.98821e-07
3.98816e-07
3.98941e-07
3.9775e-07
3.99385e-07
3.97009e-07
4.0031e-07
3.97369e-07
4.00278e-07
3.73474e-07
4.19257e-07
3.98056e-07
3.98448e-07
3.98265e-07
3.98418e-07
3.98282e-07
3.9918e-07
3.98576e-07
3.98713e-07
3.97996e-07
3.99433e-07
3.9792e-07
4.00182e-07
3.97341e-07
3.99145e-07
3.97716e-07
3.98979e-07
3.97955e-07
3.99719e-07
3.97862e-07
3.99242e-07
3.97087e-07
3.99025e-07
3.97784e-07
3.99146e-07
3.97388e-07
3.99586e-07
3.97866e-07
3.99395e-07
3.97645e-07
4.00727e-07
3.95254e-07
4.00981e-07
3.73285e-07
4.18611e-07
3.98286e-07
3.97884e-07
3.98288e-07
3.98284e-07
3.98259e-07
3.98345e-07
3.98268e-07
3.98386e-07
3.99136e-07
3.97709e-07
3.9901e-07
3.97224e-07
4.00019e-07
3.97977e-07
3.99537e-07
3.97952e-07
3.98935e-07
3.98057e-07
3.98795e-07
3.98481e-07
3.99783e-07
3.98506e-07
3.99747e-07
3.98674e-07
3.99515e-07
3.98818e-07
3.99333e-07
3.97995e-07
4.00193e-07
3.97465e-07
4.0077e-07
3.97855e-07
4.01312e-07
3.72778e-07
4.19872e-07
3.97936e-07
3.98721e-07
3.98348e-07
3.98253e-07
3.98326e-07
3.98254e-07
3.98504e-07
3.98732e-07
3.98153e-07
3.99413e-07
3.97955e-07
3.99604e-07
3.97231e-07
3.99434e-07
3.98012e-07
3.99153e-07
3.9829e-07
3.98989e-07
3.97949e-07
3.99353e-07
3.97499e-07
3.98948e-07
3.96364e-07
3.99243e-07
3.97657e-07
3.98601e-07
3.97614e-07
3.99427e-07
3.97397e-07
3.99272e-07
3.97163e-07
4.01211e-07
3.95129e-07
4.01583e-07
3.72471e-07
4.17885e-07
3.98346e-07
3.98058e-07
3.98446e-07
3.98298e-07
3.98329e-07
3.98262e-07
3.98363e-07
3.98241e-07
3.98881e-07
3.98089e-07
3.99206e-07
3.97288e-07
3.99931e-07
3.97726e-07
3.99847e-07
3.97538e-07
3.98959e-07
3.98283e-07
3.9948e-07
3.98389e-07
3.99165e-07
3.98953e-07
4.00351e-07
3.98658e-07
3.99187e-07
3.98605e-07
3.99544e-07
3.98425e-07
3.99601e-07
3.985e-07
4.0033e-07
3.97436e-07
4.00632e-07
3.96742e-07
4.02007e-07
3.73612e-07
4.20245e-07
3.982e-07
3.98478e-07
3.98385e-07
3.98502e-07
3.98306e-07
3.98447e-07
3.98469e-07
3.98701e-07
3.9797e-07
3.99036e-07
3.9793e-07
3.99628e-07
3.97566e-07
3.99184e-07
3.97512e-07
3.99779e-07
3.98323e-07
3.98945e-07
3.97825e-07
3.98964e-07
3.97934e-07
3.98896e-07
3.96827e-07
3.9961e-07
3.97076e-07
3.98885e-07
3.98038e-07
3.9861e-07
3.97915e-07
3.98929e-07
3.9687e-07
3.99408e-07
3.97994e-07
4.01099e-07
3.95545e-07
4.01122e-07
3.72543e-07
4.18673e-07
3.98384e-07
3.98067e-07
3.98632e-07
3.9787e-07
3.98448e-07
3.98509e-07
3.98573e-07
3.98555e-07
3.99589e-07
3.9775e-07
3.99255e-07
3.98001e-07
3.99842e-07
3.97835e-07
3.99364e-07
3.97394e-07
3.99435e-07
3.98293e-07
3.98992e-07
3.98857e-07
3.99206e-07
3.98236e-07
3.99219e-07
3.98643e-07
3.99995e-07
3.98743e-07
3.99323e-07
3.98418e-07
3.99265e-07
3.98548e-07
3.9947e-07
3.98573e-07
3.99269e-07
3.97682e-07
4.01011e-07
3.96828e-07
4.00824e-07
3.73041e-07
4.20609e-07
3.98223e-07
3.98875e-07
3.98378e-07
3.99275e-07
3.98579e-07
3.98646e-07
3.98647e-07
3.98643e-07
3.98311e-07
3.99493e-07
3.97799e-07
3.99049e-07
3.97635e-07
3.99921e-07
3.97559e-07
3.99903e-07
3.97971e-07
3.99118e-07
3.98075e-07
3.98695e-07
3.97826e-07
3.99009e-07
3.9806e-07
3.99135e-07
3.97215e-07
3.99107e-07
3.98102e-07
3.98308e-07
3.98382e-07
3.98701e-07
3.97881e-07
3.99599e-07
3.97593e-07
3.99655e-07
3.97068e-07
4.00889e-07
3.96349e-07
4.02675e-07
3.72297e-07
4.18361e-07
3.98292e-07
3.98234e-07
3.98901e-07
3.98054e-07
3.9861e-07
3.98646e-07
3.98555e-07
3.98518e-07
3.98761e-07
3.97929e-07
3.99321e-07
3.98125e-07
3.99644e-07
3.97663e-07
3.99936e-07
3.97854e-07
3.99664e-07
3.97954e-07
3.99526e-07
3.98506e-07
3.99323e-07
3.98399e-07
3.99253e-07
3.98128e-07
3.99303e-07
3.98238e-07
3.98891e-07
3.98673e-07
3.99159e-07
3.9824e-07
3.98913e-07
3.98614e-07
3.99067e-07
3.98801e-07
3.99487e-07
3.9778e-07
4.00297e-07
3.96296e-07
4.0173e-07
3.73513e-07
4.19235e-07
3.98189e-07
3.9843e-07
3.9797e-07
3.98887e-07
3.98725e-07
3.98663e-07
3.98419e-07
3.98427e-07
3.98504e-07
3.99172e-07
3.9777e-07
3.99389e-07
3.97333e-07
3.99147e-07
3.97732e-07
3.99278e-07
3.97471e-07
3.99514e-07
3.97825e-07
3.98587e-07
3.97878e-07
3.98954e-07
3.97977e-07
3.98671e-07
3.98234e-07
3.99072e-07
3.98184e-07
3.9906e-07
3.97881e-07
3.98869e-07
3.98362e-07
3.99202e-07
3.97821e-07
3.99188e-07
3.97864e-07
3.99883e-07
3.97147e-07
4.00199e-07
3.9614e-07
4.02656e-07
3.7339e-07
4.18366e-07
3.9844e-07
3.98254e-07
3.98552e-07
3.98031e-07
3.98465e-07
3.9842e-07
3.98367e-07
3.98492e-07
3.98725e-07
3.98062e-07
3.99687e-07
3.97858e-07
4.00392e-07
3.98325e-07
4.01237e-07
3.97757e-07
3.99928e-07
3.98827e-07
3.99334e-07
3.98451e-07
3.99729e-07
3.98084e-07
3.99339e-07
3.98062e-07
3.99402e-07
3.98265e-07
3.99341e-07
3.98422e-07
3.99505e-07
3.98451e-07
3.98781e-07
3.98385e-07
3.98628e-07
3.98826e-07
3.98804e-07
3.9842e-07
3.9986e-07
3.97592e-07
4.00835e-07
3.96147e-07
4.01891e-07
3.74096e-07
4.18791e-07
3.98096e-07
3.98435e-07
3.98365e-07
3.98878e-07
3.98332e-07
3.98322e-07
3.98379e-07
3.98659e-07
3.98428e-07
3.99038e-07
3.97669e-07
3.99206e-07
3.97503e-07
3.99213e-07
3.98089e-07
3.98262e-07
3.97839e-07
3.98667e-07
3.97552e-07
3.98643e-07
3.98444e-07
3.99085e-07
3.97834e-07
3.99174e-07
3.98138e-07
3.98763e-07
3.98147e-07
3.98829e-07
3.97852e-07
3.99092e-07
3.98407e-07
3.98999e-07
3.98526e-07
3.99188e-07
3.98059e-07
3.98926e-07
3.97689e-07
3.9992e-07
3.9707e-07
4.00737e-07
3.96019e-07
4.02171e-07
3.74354e-07
4.18296e-07
3.98319e-07
3.97915e-07
3.98455e-07
3.97504e-07
3.98245e-07
3.9831e-07
3.98603e-07
3.97857e-07
3.99237e-07
3.98094e-07
3.99447e-07
3.97438e-07
3.99677e-07
3.98158e-07
3.99399e-07
3.9806e-07
3.998e-07
3.98063e-07
4.0058e-07
3.98613e-07
3.99261e-07
3.98019e-07
3.99749e-07
3.97947e-07
3.99594e-07
3.98197e-07
3.99469e-07
3.98419e-07
3.99065e-07
3.98727e-07
3.98842e-07
3.98286e-07
3.98866e-07
3.98309e-07
3.98691e-07
3.98492e-07
3.98949e-07
3.98108e-07
3.99991e-07
3.9722e-07
4.00896e-07
3.96547e-07
4.01218e-07
3.74553e-07
4.18689e-07
3.974e-07
3.98619e-07
3.98429e-07
3.99677e-07
3.98445e-07
3.98516e-07
3.98462e-07
3.99645e-07
3.94836e-07
3.99471e-07
3.98023e-07
3.9995e-07
3.97549e-07
3.98981e-07
3.98064e-07
3.99207e-07
3.98595e-07
3.98566e-07
3.99128e-07
3.97773e-07
3.98444e-07
3.98618e-07
3.98664e-07
3.99364e-07
3.98168e-07
3.98567e-07
3.98253e-07
3.98639e-07
3.98218e-07
3.98741e-07
3.97947e-07
3.99281e-07
3.98296e-07
3.98892e-07
3.98453e-07
3.98979e-07
3.9826e-07
3.99322e-07
3.97619e-07
3.99664e-07
3.97204e-07
4.00428e-07
3.96549e-07
4.01168e-07
3.74184e-07
4.18486e-07
3.99457e-07
3.97571e-07
3.98069e-07
3.97701e-07
3.98498e-07
3.98471e-07
3.98426e-07
3.98458e-07
4.03565e-07
3.9877e-07
3.99216e-07
3.97369e-07
4.00082e-07
3.97768e-07
3.99451e-07
3.9824e-07
3.99703e-07
3.98127e-07
3.99973e-07
3.97775e-07
3.99752e-07
3.98709e-07
3.98971e-07
3.98178e-07
3.99492e-07
3.9802e-07
3.99661e-07
3.98651e-07
3.99115e-07
3.98672e-07
3.99369e-07
3.98432e-07
3.98799e-07
3.98017e-07
3.9902e-07
3.98284e-07
3.98927e-07
3.98348e-07
3.99238e-07
3.9802e-07
3.99762e-07
3.97591e-07
3.99981e-07
3.96532e-07
4.01072e-07
3.73569e-07
4.18892e-07
3.9774e-07
3.99234e-07
3.98358e-07
3.98339e-07
3.98448e-07
3.98471e-07
3.98455e-07
3.98452e-07
3.96085e-07
3.97924e-07
3.97166e-07
3.99678e-07
3.98207e-07
3.9946e-07
3.97722e-07
3.99255e-07
3.98363e-07
3.99013e-07
3.98748e-07
3.98484e-07
3.98607e-07
3.98232e-07
3.98558e-07
3.98691e-07
3.98115e-07
3.99044e-07
3.98341e-07
3.98519e-07
3.98174e-07
3.9893e-07
3.97648e-07
3.98892e-07
3.98249e-07
3.99176e-07
3.98544e-07
3.98799e-07
3.98522e-07
3.99016e-07
3.98206e-07
3.99134e-07
3.97799e-07
3.99777e-07
3.97312e-07
4.00537e-07
3.96632e-07
4.02249e-07
3.73137e-07
4.18801e-07
3.98313e-07
3.97911e-07
3.98803e-07
3.98339e-07
3.9849e-07
3.98418e-07
3.98442e-07
3.98536e-07
3.98459e-07
3.98662e-07
4.00067e-07
3.98354e-07
3.98959e-07
3.98108e-07
3.99866e-07
3.98482e-07
3.99024e-07
3.9858e-07
3.99466e-07
3.9832e-07
3.99448e-07
3.98795e-07
3.99224e-07
3.98162e-07
3.99363e-07
3.98471e-07
3.99325e-07
3.98186e-07
3.99308e-07
3.98605e-07
3.99032e-07
3.98694e-07
3.99061e-07
3.98426e-07
3.98641e-07
3.98017e-07
3.98983e-07
3.98273e-07
3.98928e-07
3.98344e-07
3.99261e-07
3.97961e-07
3.99672e-07
3.97246e-07
4.00124e-07
3.96576e-07
4.02604e-07
3.72826e-07
4.18834e-07
3.97607e-07
3.9862e-07
3.97683e-07
3.98401e-07
3.98436e-07
3.98405e-07
3.98492e-07
3.98524e-07
3.98277e-07
3.9918e-07
3.97715e-07
3.99253e-07
3.97511e-07
3.99256e-07
3.97538e-07
3.9859e-07
3.98149e-07
3.98774e-07
3.98814e-07
3.99151e-07
3.98708e-07
3.98357e-07
3.98445e-07
3.98787e-07
3.99206e-07
3.98666e-07
3.97846e-07
3.9895e-07
3.98406e-07
3.98631e-07
3.97906e-07
3.99208e-07
3.97693e-07
3.98896e-07
3.98461e-07
3.99148e-07
3.98526e-07
3.9898e-07
3.98495e-07
3.98991e-07
3.98273e-07
3.99214e-07
3.97953e-07
3.99909e-07
3.97494e-07
3.99984e-07
3.95772e-07
4.02642e-07
3.73843e-07
4.18125e-07
3.99448e-07
3.98068e-07
3.98475e-07
3.98505e-07
3.98502e-07
3.98515e-07
3.98403e-07
3.98452e-07
3.98908e-07
3.98147e-07
3.99157e-07
3.98174e-07
4.00167e-07
3.97842e-07
3.99828e-07
3.98963e-07
3.99919e-07
3.98165e-07
3.99295e-07
3.98495e-07
3.99607e-07
3.98513e-07
3.99484e-07
3.98665e-07
3.99195e-07
3.97789e-07
3.99436e-07
3.98542e-07
3.99406e-07
3.98436e-07
3.9915e-07
3.98785e-07
3.99097e-07
3.98691e-07
3.98859e-07
3.98433e-07
3.98866e-07
3.98044e-07
3.98872e-07
3.98354e-07
3.989e-07
3.98101e-07
3.98985e-07
3.97894e-07
3.99889e-07
3.97441e-07
4.00167e-07
3.96569e-07
4.02084e-07
3.73694e-07
4.1883e-07
3.97362e-07
3.98721e-07
3.98789e-07
3.98443e-07
3.98467e-07
3.98496e-07
3.98525e-07
3.98419e-07
3.98401e-07
3.99354e-07
3.97992e-07
3.99401e-07
3.9765e-07
4.00122e-07
3.97611e-07
3.98877e-07
3.97776e-07
3.99223e-07
3.98078e-07
3.98674e-07
3.98607e-07
3.98808e-07
3.98495e-07
3.98501e-07
3.9848e-07
3.98611e-07
3.98578e-07
3.98821e-07
3.9797e-07
3.99043e-07
3.98177e-07
3.98813e-07
3.97812e-07
3.99256e-07
3.98032e-07
3.98936e-07
3.98378e-07
3.9918e-07
3.9845e-07
3.98827e-07
3.98356e-07
3.99176e-07
3.98236e-07
3.99062e-07
3.97686e-07
3.99877e-07
3.96903e-07
4.00149e-07
3.96359e-07
4.02374e-07
3.74128e-07
4.18233e-07
3.98922e-07
3.97635e-07
3.98014e-07
3.98189e-07
3.98474e-07
3.98393e-07
3.98427e-07
3.984e-07
3.98562e-07
3.98131e-07
3.9886e-07
3.98229e-07
3.99533e-07
3.98004e-07
3.99478e-07
3.98433e-07
3.99867e-07
3.98021e-07
3.99728e-07
3.98235e-07
3.99228e-07
3.98123e-07
3.99787e-07
3.98401e-07
3.99363e-07
3.98727e-07
3.99607e-07
3.98396e-07
3.99486e-07
3.98374e-07
3.98806e-07
3.98595e-07
3.99081e-07
3.98502e-07
3.99169e-07
3.98429e-07
3.98568e-07
3.98214e-07
3.98865e-07
3.98057e-07
3.98832e-07
3.98308e-07
3.98971e-07
3.98281e-07
3.99112e-07
3.97582e-07
4.00385e-07
3.97241e-07
4.00015e-07
3.96515e-07
4.01076e-07
3.73931e-07
4.19129e-07
3.97446e-07
3.99146e-07
3.97417e-07
3.98439e-07
3.98401e-07
3.98382e-07
3.98382e-07
3.98561e-07
3.98355e-07
3.98722e-07
3.98208e-07
3.99091e-07
3.9755e-07
3.99107e-07
3.97857e-07
3.99859e-07
3.98081e-07
3.99311e-07
3.98112e-07
3.98813e-07
3.98635e-07
3.98974e-07
3.98916e-07
3.98843e-07
3.98814e-07
3.98514e-07
3.98032e-07
3.98437e-07
3.98309e-07
3.98786e-07
3.98123e-07
3.99186e-07
3.98328e-07
3.98897e-07
3.98119e-07
3.99235e-07
3.98333e-07
3.99125e-07
3.98358e-07
3.99265e-07
3.98206e-07
3.98952e-07
3.98335e-07
3.99259e-07
3.98194e-07
3.9937e-07
3.97836e-07
3.99845e-07
3.97473e-07
4.00315e-07
3.96846e-07
4.01739e-07
3.74101e-07
4.18384e-07
3.99299e-07
3.98205e-07
3.99945e-07
3.98427e-07
3.98349e-07
3.98415e-07
3.98407e-07
3.98397e-07
3.98677e-07
3.98456e-07
3.99114e-07
3.98007e-07
4.00157e-07
3.98325e-07
3.99492e-07
3.98085e-07
3.99305e-07
3.98587e-07
3.99906e-07
3.98317e-07
3.99491e-07
3.98024e-07
3.99516e-07
3.97712e-07
3.99234e-07
3.9835e-07
3.99164e-07
3.98974e-07
3.99481e-07
3.98213e-07
3.99209e-07
3.98496e-07
3.9877e-07
3.98353e-07
3.98925e-07
3.98725e-07
3.99118e-07
3.98623e-07
3.98668e-07
3.98244e-07
3.9904e-07
3.98102e-07
3.98826e-07
3.98355e-07
3.99101e-07
3.98238e-07
3.99034e-07
3.97703e-07
3.99928e-07
3.97603e-07
4.00249e-07
3.96554e-07
4.01136e-07
3.74695e-07
4.1955e-07
3.97287e-07
3.98549e-07
3.97717e-07
3.98498e-07
3.98342e-07
3.98396e-07
3.98409e-07
3.98699e-07
3.98282e-07
3.99168e-07
3.97936e-07
3.99426e-07
3.98205e-07
3.98469e-07
3.97643e-07
4.00148e-07
3.98134e-07
3.98767e-07
3.98267e-07
3.98584e-07
3.97949e-07
3.99351e-07
3.98602e-07
3.99096e-07
3.9933e-07
3.99227e-07
3.98709e-07
3.98745e-07
3.98103e-07
3.99022e-07
3.98367e-07
3.99283e-07
3.98142e-07
3.99302e-07
3.98552e-07
3.98956e-07
3.97805e-07
3.98565e-07
3.98434e-07
3.98911e-07
3.98319e-07
3.99107e-07
3.9817e-07
3.98792e-07
3.98129e-07
3.99189e-07
3.98323e-07
3.99393e-07
3.9794e-07
3.99792e-07
3.975e-07
4.00594e-07
3.96329e-07
4.01564e-07
3.73706e-07
4.19083e-07
3.98957e-07
3.96528e-07
3.98479e-07
3.97721e-07
3.98334e-07
3.98379e-07
3.98535e-07
3.98454e-07
3.98873e-07
3.98154e-07
3.99624e-07
3.98169e-07
3.98949e-07
3.98286e-07
3.99977e-07
3.97844e-07
4.00474e-07
3.99152e-07
3.99899e-07
3.98263e-07
4.01073e-07
3.98494e-07
3.98298e-07
3.98311e-07
3.99069e-07
3.97673e-07
3.99482e-07
3.9811e-07
3.98908e-07
3.9876e-07
3.99343e-07
3.98297e-07
3.9894e-07
3.98306e-07
3.98921e-07
3.97927e-07
3.99059e-07
3.98956e-07
3.99212e-07
3.98442e-07
3.99056e-07
3.98289e-07
3.99054e-07
3.98343e-07
3.98872e-07
3.98258e-07
3.99011e-07
3.98136e-07
3.992e-07
3.97745e-07
3.9961e-07
3.97077e-07
4.01038e-07
3.96574e-07
4.01173e-07
3.73818e-07
4.19463e-07
3.97679e-07
4.01126e-07
3.96366e-07
3.98695e-07
3.98392e-07
3.98479e-07
3.98475e-07
3.98513e-07
3.98365e-07
3.99435e-07
3.97753e-07
3.9996e-07
3.97821e-07
3.99602e-07
3.98319e-07
4.00066e-07
3.9772e-07
3.97483e-07
3.97854e-07
3.98936e-07
3.97999e-07
3.98792e-07
3.98597e-07
3.9906e-07
3.98588e-07
3.99055e-07
3.98872e-07
3.98712e-07
3.98691e-07
3.98967e-07
3.98319e-07
3.98744e-07
3.98258e-07
3.98879e-07
3.98226e-07
3.98514e-07
3.98788e-07
3.99532e-07
3.97899e-07
3.98739e-07
3.98648e-07
3.98744e-07
3.98196e-07
3.98962e-07
3.98288e-07
3.98798e-07
3.98192e-07
3.99128e-07
3.98151e-07
3.99464e-07
3.98108e-07
3.99757e-07
3.97322e-07
4.00804e-07
3.9625e-07
4.01997e-07
3.73396e-07
4.19498e-07
3.98685e-07
3.97269e-07
4.007e-07
3.98633e-07
3.98471e-07
3.98503e-07
3.98483e-07
3.98379e-07
3.98409e-07
3.98235e-07
3.99723e-07
3.97333e-07
4.00053e-07
3.9737e-07
3.99768e-07
3.97802e-07
3.99397e-07
3.98452e-07
4.00591e-07
3.98944e-07
3.99462e-07
3.98344e-07
3.99012e-07
3.98622e-07
3.99941e-07
3.98374e-07
3.98789e-07
3.98338e-07
3.99117e-07
3.98287e-07
3.99107e-07
3.98289e-07
3.99429e-07
3.98526e-07
3.99046e-07
3.98186e-07
3.99505e-07
3.97654e-07
3.98354e-07
3.98739e-07
3.98971e-07
3.98308e-07
3.99219e-07
3.98458e-07
3.98944e-07
3.9844e-07
3.98972e-07
3.98359e-07
3.98924e-07
3.98047e-07
3.99293e-07
3.97818e-07
3.998e-07
3.97046e-07
4.00718e-07
3.96138e-07
4.01263e-07
3.73461e-07
4.2014e-07
3.97474e-07
3.98482e-07
3.98383e-07
3.98402e-07
3.98421e-07
3.9847e-07
3.98433e-07
3.98412e-07
3.98335e-07
3.99012e-07
3.97647e-07
4.00269e-07
3.9773e-07
4.0125e-07
3.98436e-07
3.98658e-07
3.98551e-07
3.99433e-07
3.97631e-07
3.98835e-07
3.98118e-07
3.98614e-07
3.98786e-07
3.98842e-07
3.98462e-07
3.98549e-07
3.98729e-07
3.99337e-07
3.98632e-07
3.98745e-07
3.98456e-07
3.9899e-07
3.9848e-07
3.98724e-07
3.98327e-07
3.98984e-07
3.98529e-07
3.98619e-07
3.98818e-07
3.994e-07
3.97893e-07
3.98814e-07
3.9845e-07
3.98714e-07
3.98179e-07
3.9897e-07
3.98255e-07
3.9871e-07
3.98173e-07
3.99193e-07
3.98295e-07
3.99399e-07
3.98139e-07
3.99885e-07
3.97522e-07
4.00809e-07
3.96494e-07
4.02088e-07
3.7266e-07
4.19474e-07
3.99112e-07
3.98223e-07
3.97961e-07
3.9837e-07
3.98405e-07
3.98336e-07
3.98418e-07
3.98386e-07
3.98666e-07
3.98305e-07
3.99786e-07
3.97664e-07
3.99608e-07
3.97222e-07
3.99629e-07
3.97856e-07
3.9939e-07
3.98292e-07
3.99609e-07
3.9867e-07
3.99492e-07
3.9907e-07
3.99595e-07
3.98271e-07
3.99443e-07
3.98522e-07
3.99234e-07
3.98422e-07
3.99186e-07
3.98612e-07
4.00135e-07
3.98533e-07
3.98967e-07
3.98188e-07
3.99137e-07
3.98458e-07
3.99173e-07
3.98265e-07
3.99192e-07
3.97788e-07
3.98861e-07
3.98549e-07
3.98996e-07
3.98315e-07
3.99088e-07
3.98414e-07
3.99008e-07
3.98226e-07
3.98959e-07
3.98254e-07
3.9871e-07
3.98004e-07
3.98936e-07
3.98043e-07
3.99899e-07
3.9733e-07
4.00234e-07
3.96122e-07
4.01336e-07
3.73164e-07
4.19525e-07
3.97786e-07
3.98373e-07
3.98353e-07
3.98773e-07
3.98464e-07
3.98405e-07
3.98451e-07
3.98368e-07
3.98245e-07
3.99042e-07
3.97481e-07
3.99659e-07
3.97871e-07
3.99737e-07
3.98221e-07
4.00001e-07
3.98553e-07
3.98923e-07
3.98318e-07
3.98794e-07
3.98184e-07
3.99274e-07
3.98219e-07
3.98711e-07
3.98687e-07
3.98558e-07
3.98732e-07
3.988e-07
3.98719e-07
3.97879e-07
3.9847e-07
3.98572e-07
3.98669e-07
3.99253e-07
3.98612e-07
3.98778e-07
3.98442e-07
3.98847e-07
3.98704e-07
3.98936e-07
3.98572e-07
3.99122e-07
3.98145e-07
3.9874e-07
3.98209e-07
3.98892e-07
3.98171e-07
3.98884e-07
3.98122e-07
3.98875e-07
3.98308e-07
3.99279e-07
3.98373e-07
3.99297e-07
3.98211e-07
3.99005e-07
3.98039e-07
4.00629e-07
3.96231e-07
4.01884e-07
3.73354e-07
4.19199e-07
3.98735e-07
3.98714e-07
3.99044e-07
3.98301e-07
3.984e-07
3.98347e-07
3.9842e-07
3.98394e-07
3.98492e-07
3.98466e-07
3.99972e-07
3.97325e-07
3.99993e-07
3.96693e-07
3.99729e-07
3.97588e-07
4.00503e-07
3.97804e-07
3.9922e-07
3.98623e-07
3.99821e-07
3.97919e-07
3.99749e-07
3.98351e-07
3.99821e-07
3.98534e-07
3.99632e-07
3.98695e-07
3.99263e-07
3.98494e-07
3.99421e-07
3.98568e-07
3.99059e-07
3.98321e-07
3.9841e-07
3.98242e-07
3.98967e-07
3.98398e-07
3.99273e-07
3.97837e-07
3.99168e-07
3.979e-07
3.98903e-07
3.98388e-07
3.99065e-07
3.98336e-07
3.99208e-07
3.98375e-07
3.98917e-07
3.98231e-07
3.99046e-07
3.98218e-07
3.98964e-07
3.98063e-07
3.98841e-07
3.98243e-07
3.99447e-07
3.97549e-07
4.00373e-07
3.96477e-07
4.00569e-07
3.7358e-07
4.2012e-07
3.97891e-07
3.98294e-07
3.97487e-07
3.98473e-07
3.98331e-07
3.98497e-07
3.9837e-07
3.98366e-07
3.98415e-07
3.98835e-07
3.97746e-07
4.0018e-07
3.9748e-07
4.01009e-07
3.98219e-07
3.99899e-07
3.98432e-07
3.99655e-07
3.98333e-07
3.99288e-07
3.98202e-07
3.99282e-07
3.98594e-07
3.98965e-07
3.98657e-07
3.98731e-07
3.98723e-07
3.98473e-07
3.9883e-07
3.98613e-07
3.98471e-07
3.98224e-07
3.98733e-07
3.98807e-07
3.98739e-07
3.99429e-07
3.98533e-07
3.99404e-07
3.98286e-07
3.98654e-07
3.98665e-07
3.99197e-07
3.98473e-07
3.99073e-07
3.98283e-07
3.98898e-07
3.9798e-07
3.98906e-07
3.98089e-07
3.98814e-07
3.981e-07
3.9871e-07
3.98303e-07
3.99244e-07
3.98116e-07
3.99201e-07
3.98392e-07
3.99235e-07
3.97863e-07
4.00396e-07
3.96743e-07
4.01721e-07
3.72878e-07
4.18883e-07
3.98487e-07
3.97978e-07
3.99096e-07
3.98441e-07
3.98493e-07
3.98159e-07
3.98376e-07
3.98427e-07
3.98494e-07
3.98524e-07
3.9941e-07
3.98149e-07
3.99708e-07
3.97724e-07
4.00215e-07
3.97879e-07
3.99471e-07
3.97477e-07
4.00227e-07
3.97997e-07
3.98913e-07
3.98294e-07
3.98836e-07
3.9841e-07
3.99059e-07
3.98337e-07
3.99523e-07
3.98504e-07
3.9943e-07
3.98611e-07
3.99233e-07
3.98579e-07
3.99905e-07
3.98783e-07
3.98825e-07
3.98269e-07
3.98543e-07
3.98167e-07
3.99435e-07
3.98221e-07
3.99141e-07
3.9795e-07
3.99124e-07
3.97917e-07
3.98873e-07
3.98387e-07
3.99095e-07
3.98305e-07
3.99155e-07
3.98481e-07
3.9897e-07
3.98281e-07
3.99045e-07
3.98279e-07
3.99085e-07
3.97941e-07
3.99064e-07
3.98193e-07
3.99337e-07
3.97847e-07
4.00354e-07
3.9644e-07
4.01397e-07
3.73718e-07
4.19572e-07
3.97768e-07
3.98747e-07
3.97849e-07
3.98552e-07
3.97596e-07
3.98419e-07
3.98478e-07
3.98368e-07
3.9841e-07
3.9895e-07
3.98055e-07
3.9918e-07
3.97775e-07
4.0001e-07
3.97956e-07
3.99002e-07
3.98465e-07
4.00625e-07
3.98685e-07
3.99437e-07
3.99423e-07
3.99092e-07
3.98876e-07
3.99156e-07
3.98406e-07
3.99268e-07
3.98452e-07
3.98508e-07
3.98606e-07
3.98524e-07
3.98437e-07
3.98677e-07
3.98589e-07
3.98014e-07
3.9889e-07
3.98989e-07
3.98703e-07
3.99237e-07
3.98634e-07
3.97955e-07
3.98568e-07
3.98619e-07
3.9856e-07
3.99077e-07
3.98502e-07
3.98853e-07
3.98313e-07
3.99117e-07
3.97977e-07
3.98714e-07
3.98147e-07
3.98721e-07
3.98326e-07
3.98601e-07
3.98296e-07
3.99183e-07
3.97991e-07
3.98921e-07
3.98435e-07
3.98999e-07
3.97614e-07
4.00395e-07
3.96945e-07
4.01832e-07
3.73766e-07
4.18933e-07
3.98595e-07
3.9766e-07
3.98536e-07
3.97478e-07
3.99169e-07
3.9852e-07
3.9838e-07
3.98413e-07
3.98432e-07
3.98325e-07
3.99585e-07
3.97931e-07
3.9977e-07
3.97616e-07
3.99604e-07
3.97711e-07
3.99938e-07
3.97356e-07
3.98892e-07
3.97637e-07
3.99222e-07
3.97671e-07
3.99015e-07
3.98204e-07
3.99221e-07
3.98299e-07
3.98996e-07
3.98394e-07
3.99846e-07
3.99178e-07
3.99183e-07
3.99384e-07
3.99089e-07
3.98499e-07
3.9909e-07
3.98079e-07
3.98793e-07
3.98336e-07
3.98807e-07
3.98548e-07
3.99524e-07
3.98535e-07
3.99167e-07
3.98092e-07
3.9889e-07
3.98127e-07
3.98988e-07
3.98263e-07
3.99234e-07
3.98318e-07
3.98929e-07
3.98391e-07
3.98887e-07
3.98174e-07
3.98999e-07
3.98354e-07
3.99224e-07
3.98292e-07
3.98989e-07
3.98084e-07
3.99554e-07
3.97548e-07
4.00378e-07
3.96508e-07
4.01494e-07
3.74087e-07
4.19428e-07
3.9789e-07
3.98802e-07
3.98369e-07
3.99597e-07
3.98373e-07
3.98294e-07
3.98429e-07
3.98368e-07
3.98421e-07
3.98941e-07
3.97611e-07
3.99753e-07
3.97759e-07
3.99833e-07
3.97997e-07
4.00161e-07
3.98156e-07
3.9938e-07
3.98704e-07
3.99515e-07
3.98949e-07
3.99488e-07
3.99729e-07
3.99405e-07
3.98732e-07
3.98936e-07
3.98737e-07
3.9919e-07
3.98631e-07
3.98173e-07
3.98419e-07
3.98769e-07
3.98056e-07
3.98697e-07
3.9866e-07
3.98373e-07
3.98979e-07
3.98929e-07
3.9868e-07
3.98839e-07
3.98623e-07
3.98325e-07
3.9837e-07
3.98735e-07
3.98446e-07
3.99116e-07
3.98394e-07
3.98929e-07
3.98208e-07
3.9912e-07
3.97901e-07
3.98699e-07
3.98281e-07
3.98867e-07
3.98261e-07
3.98737e-07
3.9825e-07
3.98983e-07
3.98114e-07
3.99026e-07
3.98194e-07
3.99247e-07
3.97911e-07
4.00117e-07
3.96278e-07
4.01988e-07
3.73674e-07
4.18656e-07
3.98633e-07
3.97763e-07
3.9825e-07
3.97931e-07
3.98284e-07
3.98363e-07
3.9838e-07
3.98323e-07
3.98408e-07
3.98477e-07
3.99657e-07
3.9759e-07
3.99389e-07
3.97699e-07
3.99716e-07
3.97724e-07
3.99953e-07
3.983e-07
3.99546e-07
3.97622e-07
3.99808e-07
3.97436e-07
3.99442e-07
3.97139e-07
3.98834e-07
3.98557e-07
3.98888e-07
3.98567e-07
3.98997e-07
3.98428e-07
3.99638e-07
3.99296e-07
3.98941e-07
3.99341e-07
3.98932e-07
3.98639e-07
3.9897e-07
3.98482e-07
3.98584e-07
3.98466e-07
3.98883e-07
3.98589e-07
3.98977e-07
3.98547e-07
3.99249e-07
3.98363e-07
3.98902e-07
3.98123e-07
3.98902e-07
3.98275e-07
3.99172e-07
3.98352e-07
3.98831e-07
3.9837e-07
3.9889e-07
3.98159e-07
3.98967e-07
3.98329e-07
3.99413e-07
3.98171e-07
3.99098e-07
3.98045e-07
3.99357e-07
3.97526e-07
4.0113e-07
3.96233e-07
4.02131e-07
3.73737e-07
4.19493e-07
3.97927e-07
3.9947e-07
3.98376e-07
3.98374e-07
3.98432e-07
3.98443e-07
3.98444e-07
3.98345e-07
3.98414e-07
3.98628e-07
3.98223e-07
3.99916e-07
3.98058e-07
4.00079e-07
3.98467e-07
4.0034e-07
3.9798e-07
3.99843e-07
3.98433e-07
3.99658e-07
3.99009e-07
3.98899e-07
3.98855e-07
3.98861e-07
3.99924e-07
3.98934e-07
3.98976e-07
3.99143e-07
3.98629e-07
3.99132e-07