/*--------------------------------*- C++ -*----------------------------------*\
| =========                 |                                                 |
| \\      /  F ield         | OpenFOAM: The Open Source CFD Toolbox           |
|  \\    /   O peration     | Version:  2206                                  |
|   \\  /    A nd           | Website:  www.openfoam.com                      |
|    \\/     M anipulation  |                                                 |
\*---------------------------------------------------------------------------*/
FoamFile
{
    version     2.0;
    format      ascii;
    arch        "LSB;label=32;scalar=64";
    class       volScalarField;
    location    "170";
    object      nuTilda;
}
// * * * * * * * * * * * * * * * * * * * * * * * * * * * * * * * * * * * * * //

dimensions      [0 2 -1 0 0 0 0];

internalField   nonuniform List<scalar> 
93840
(
4.53715e-07
2.6497e-07
4.53095e-07
4.03607e-07
2.65609e-07
4.42905e-07
3.64794e-07
4.19234e-07
3.05309e-07
4.31758e-07
4.1737e-07
3.82014e-07
4.14087e-07
3.34035e-07
4.32435e-07
3.87316e-07
4.05052e-07
3.87218e-07
4.1082e-07
3.32755e-07
4.11775e-07
4.00731e-07
3.94633e-07
4.04739e-07
3.89514e-07
4.15385e-07
3.66411e-07
4.32881e-07
3.96741e-07
4.00948e-07
3.9229e-07
4.02944e-07
3.94777e-07
4.11377e-07
3.54286e-07
4.0977e-07
3.99911e-07
3.89717e-07
4.01184e-07
3.97459e-07
3.9944e-07
3.96159e-07
4.05331e-07
3.61881e-07
4.30665e-07
3.971e-07
4.07516e-07
3.96808e-07
3.9921e-07
3.97744e-07
3.98878e-07
3.92506e-07
4.05007e-07
3.56745e-07
4.15043e-07
3.99587e-07
3.92962e-07
4.01954e-07
3.95362e-07
4.00513e-07
3.98717e-07
3.99479e-07
3.95679e-07
4.0368e-07
3.70743e-07
4.31862e-07
3.9624e-07
4.01042e-07
3.94296e-07
4.02515e-07
3.98285e-07
3.98942e-07
3.97557e-07
4.01922e-07
3.92254e-07
3.98379e-07
3.65829e-07
4.14349e-07
3.99476e-07
3.94213e-07
4.00306e-07
3.97052e-07
3.99209e-07
3.98957e-07
4.00608e-07
3.94883e-07
4.02386e-07
3.96623e-07
3.98714e-07
3.68388e-07
4.24644e-07
3.98015e-07
4.00193e-07
3.95154e-07
3.98255e-07
3.97504e-07
3.98728e-07
3.98266e-07
4.02001e-07
3.97866e-07
4.0184e-07
3.96758e-07
4.03811e-07
3.65735e-07
4.18001e-07
3.9819e-07
3.97207e-07
4.00116e-07
3.98699e-07
3.98856e-07
3.98472e-07
3.98844e-07
3.97565e-07
3.98506e-07
3.97144e-07
3.99545e-07
3.9452e-07
4.04235e-07
3.7038e-07
4.24862e-07
3.9823e-07
3.99226e-07
3.97332e-07
3.98366e-07
3.98182e-07
3.98643e-07
3.98669e-07
3.99706e-07
3.9766e-07
4.01041e-07
3.97299e-07
4.01802e-07
3.93681e-07
4.00301e-07
3.66553e-07
4.18139e-07
3.98373e-07
3.96805e-07
3.99873e-07
3.98452e-07
3.98949e-07
3.98398e-07
3.98487e-07
3.98394e-07
4.00089e-07
3.97847e-07
3.99504e-07
3.97603e-07
3.9949e-07
3.96363e-07
4.02108e-07
3.69098e-07
4.22638e-07
3.98144e-07
3.99294e-07
3.96272e-07
3.98442e-07
3.97044e-07
3.98509e-07
3.98432e-07
3.98792e-07
3.97401e-07
3.99893e-07
3.97675e-07
3.99982e-07
3.9704e-07
4.02251e-07
3.95421e-07
4.03901e-07
3.68257e-07
4.17827e-07
3.98176e-07
3.97889e-07
3.99579e-07
3.97533e-07
3.99663e-07
3.98397e-07
3.9898e-07
3.97769e-07
3.9964e-07
3.98435e-07
3.99383e-07
3.98212e-07
3.99548e-07
3.97556e-07
3.99029e-07
3.93934e-07
4.03553e-07
3.71692e-07
4.21582e-07
3.98245e-07
3.98526e-07
3.9735e-07
3.9962e-07
3.97823e-07
3.98276e-07
3.98408e-07
3.9971e-07
3.98091e-07
3.98999e-07
3.97663e-07
3.99764e-07
3.97698e-07
4.0079e-07
3.97938e-07
4.02551e-07
3.95228e-07
4.00911e-07
3.70192e-07
4.17022e-07
3.98324e-07
3.97881e-07
3.9878e-07
3.97972e-07
3.98944e-07
3.98512e-07
3.98743e-07
3.97833e-07
3.99521e-07
3.98581e-07
3.99773e-07
3.97479e-07
4.00061e-07
3.99102e-07
3.99352e-07
3.9714e-07
3.99332e-07
3.96844e-07
4.02294e-07
3.71489e-07
4.21137e-07
3.98133e-07
3.9856e-07
3.9775e-07
3.9849e-07
3.97588e-07
3.9833e-07
3.98547e-07
3.9903e-07
3.97771e-07
3.98678e-07
3.97889e-07
4.00376e-07
3.97971e-07
3.9956e-07
3.95752e-07
3.99929e-07
3.9699e-07
4.01722e-07
3.94108e-07
4.02885e-07
3.68814e-07
4.17995e-07
3.98493e-07
3.97793e-07
3.98439e-07
3.98259e-07
3.98683e-07
3.98448e-07
3.98688e-07
3.97536e-07
3.9979e-07
3.97715e-07
3.99734e-07
3.97156e-07
3.9983e-07
3.9854e-07
4.00368e-07
3.99019e-07
4.00703e-07
3.96788e-07
3.99747e-07
3.96056e-07
4.03266e-07
3.72513e-07
4.22003e-07
3.98011e-07
3.98731e-07
3.98299e-07
3.98964e-07
3.98078e-07
3.98298e-07
3.98471e-07
4.00084e-07
3.96106e-07
3.9928e-07
3.97979e-07
3.9972e-07
3.97286e-07
3.98772e-07
3.96822e-07
4.00377e-07
3.95742e-07
4.00953e-07
3.97737e-07
4.02295e-07
3.93494e-07
4.02412e-07
3.70618e-07
4.21082e-07
3.98271e-07
3.97746e-07
3.98451e-07
3.97431e-07
3.98627e-07
3.98437e-07
3.98565e-07
3.97983e-07
4.01578e-07
3.98539e-07
3.99764e-07
3.97573e-07
4.00567e-07
3.97877e-07
4.00425e-07
3.98788e-07
4.00283e-07
3.98999e-07
4.00002e-07
3.95721e-07
3.99684e-07
3.96036e-07
4.00734e-07
3.73401e-07
4.29016e-07
3.98017e-07
3.98701e-07
3.98202e-07
3.98867e-07
3.97812e-07
3.98471e-07
3.98323e-07
3.98578e-07
3.96883e-07
3.98584e-07
3.97331e-07
3.99141e-07
3.97048e-07
4.00078e-07
3.97391e-07
3.9879e-07
3.96488e-07
4.00113e-07
3.9607e-07
4.00929e-07
3.97691e-07
4.02663e-07
3.94347e-07
3.99635e-07
3.656e-07
4.12499e-07
3.98522e-07
3.98235e-07
3.98519e-07
3.97537e-07
3.98603e-07
3.98307e-07
3.98406e-07
3.98404e-07
3.98966e-07
3.9849e-07
3.99581e-07
3.98263e-07
4.00368e-07
3.97045e-07
3.99238e-07
3.99032e-07
3.99607e-07
3.98098e-07
4.00175e-07
3.99229e-07
3.99586e-07
3.96624e-07
4.01606e-07
3.9709e-07
4.01149e-07
3.69948e-07
4.20496e-07
3.98077e-07
3.98493e-07
3.98307e-07
3.99079e-07
3.98433e-07
3.98777e-07
3.98342e-07
3.99093e-07
3.97848e-07
3.99606e-07
3.97396e-07
3.99409e-07
3.97193e-07
3.99829e-07
3.97396e-07
3.98729e-07
3.97661e-07
3.99648e-07
3.98418e-07
3.99403e-07
3.97176e-07
3.99765e-07
3.97748e-07
4.0144e-07
3.95367e-07
4.0208e-07
3.74782e-07
4.17434e-07
3.9828e-07
3.98273e-07
3.98711e-07
3.97899e-07
3.98502e-07
3.9802e-07
3.98563e-07
3.97517e-07
3.99689e-07
3.97266e-07
3.9953e-07
3.97724e-07
3.99853e-07
3.98005e-07
4.00943e-07
3.97921e-07
4.00085e-07
3.98496e-07
3.99744e-07
3.98028e-07
4.00722e-07
3.98257e-07
4.00087e-07
3.96991e-07
3.99938e-07
3.96982e-07
4.00988e-07
3.728e-07
4.20977e-07
3.9829e-07
3.98419e-07
3.97719e-07
3.98826e-07
3.98385e-07
3.98874e-07
3.98553e-07
4.00164e-07
3.95717e-07
4.00014e-07
3.97235e-07
3.99644e-07
3.97482e-07
3.98989e-07
3.97609e-07
3.99242e-07
3.97683e-07
3.99018e-07
3.96865e-07
3.99085e-07
3.96904e-07
3.99841e-07
3.97541e-07
4.00042e-07
3.98471e-07
4.00614e-07
3.94492e-07
4.02679e-07
3.72188e-07
4.17984e-07
3.9874e-07
3.98139e-07
3.99106e-07
3.98469e-07
3.98642e-07
3.97986e-07
3.98398e-07
3.98077e-07
4.01993e-07
3.98175e-07
4.00002e-07
3.9747e-07
3.99795e-07
3.98048e-07
4.00494e-07
3.97781e-07
4.00167e-07
3.98806e-07
4.00099e-07
4.00117e-07
4.00215e-07
3.98695e-07
3.99821e-07
3.98287e-07
3.99377e-07
3.97553e-07
4.0017e-07
3.95991e-07
4.00403e-07
3.75085e-07
4.20247e-07
3.97795e-07
3.98706e-07
3.97491e-07
3.98532e-07
3.98277e-07
3.99499e-07
3.98507e-07
3.98793e-07
3.96685e-07
3.98471e-07
3.97358e-07
4.00426e-07
3.97406e-07
3.98946e-07
3.97705e-07
3.9943e-07
3.97688e-07
3.98969e-07
3.96757e-07
3.98933e-07
3.97431e-07
3.9901e-07
3.97249e-07
3.99676e-07
3.98523e-07
3.99838e-07
3.98111e-07
4.01383e-07
3.96507e-07
3.99174e-07
3.73085e-07
4.18036e-07
3.98509e-07
3.97778e-07
3.98847e-07
3.98418e-07
3.98327e-07
3.9654e-07
3.98331e-07
3.98495e-07
3.98969e-07
3.98402e-07
3.99795e-07
3.97358e-07
3.9946e-07
3.98031e-07
3.9963e-07
3.98661e-07
3.99139e-07
3.9812e-07
4.00404e-07
3.99181e-07
3.99236e-07
3.98189e-07
3.9897e-07
3.9928e-07
3.98956e-07
3.97642e-07
3.99298e-07
3.96735e-07
4.00302e-07
3.9721e-07
3.99888e-07
3.73459e-07
4.19576e-07
3.98103e-07
3.98548e-07
3.98219e-07
3.98517e-07
3.98321e-07
3.99182e-07
3.98656e-07
3.98825e-07
3.98014e-07
3.99495e-07
3.97806e-07
4.00336e-07
3.97623e-07
3.98636e-07
3.97857e-07
3.98816e-07
3.97857e-07
3.99618e-07
3.98202e-07
3.99116e-07
3.96914e-07
3.99025e-07
3.98151e-07
3.99492e-07
3.97308e-07
3.99968e-07
3.9807e-07
4.00017e-07
3.97903e-07
4.01083e-07
3.95468e-07
4.01263e-07
3.72709e-07
4.19003e-07
3.98302e-07
3.9762e-07
3.98357e-07
3.98321e-07
3.983e-07
3.98384e-07
3.98312e-07
3.98457e-07
3.99281e-07
3.97894e-07
3.99144e-07
3.97227e-07
3.99837e-07
3.98243e-07
4.00419e-07
3.98251e-07
3.99008e-07
3.98154e-07
3.98845e-07
3.98398e-07
3.99788e-07
3.98204e-07
4.00594e-07
3.98651e-07
3.99358e-07
3.99168e-07
3.99457e-07
3.98069e-07
4.00214e-07
3.97149e-07
4.01144e-07
3.97712e-07
4.01314e-07
3.72529e-07
4.19638e-07
3.97952e-07
3.99107e-07
3.98397e-07
3.98318e-07
3.98367e-07
3.98305e-07
3.98558e-07
3.9888e-07
3.9821e-07
3.99478e-07
3.97915e-07
3.99706e-07
3.97497e-07
3.9946e-07
3.97855e-07
3.98738e-07
3.98449e-07
3.99275e-07
3.9819e-07
3.99611e-07
3.97501e-07
3.99242e-07
3.95727e-07
3.98906e-07
3.97779e-07
3.98633e-07
3.97603e-07
3.99627e-07
3.97783e-07
3.9944e-07
3.97366e-07
4.01136e-07
3.9445e-07
4.01637e-07
3.731e-07
4.17987e-07
3.98363e-07
3.9791e-07
3.98529e-07
3.98321e-07
3.98388e-07
3.98312e-07
3.98422e-07
3.98275e-07
3.99027e-07
3.98162e-07
3.99359e-07
3.97343e-07
4.00189e-07
3.97968e-07
4.00112e-07
3.97874e-07
3.98987e-07
3.98196e-07
3.99633e-07
3.98468e-07
3.99108e-07
3.9914e-07
4.0114e-07
3.99986e-07
3.99043e-07
3.98924e-07
3.99948e-07
3.9855e-07
3.99559e-07
3.9831e-07
4.00586e-07
3.98037e-07
4.00609e-07
3.97025e-07
4.01228e-07
3.74108e-07
4.21022e-07
3.98266e-07
3.98696e-07
3.98454e-07
3.98602e-07
3.98346e-07
3.98533e-07
3.98554e-07
3.98826e-07
3.9799e-07
3.99207e-07
3.97997e-07
3.99844e-07
3.97808e-07
3.98983e-07
3.97485e-07
3.99652e-07
3.98816e-07
3.99014e-07
3.98057e-07
3.9875e-07
3.97952e-07
3.98921e-07
3.9646e-07
3.99434e-07
3.97055e-07
3.98896e-07
3.97961e-07
3.98282e-07
3.98045e-07
3.99122e-07
3.97059e-07
3.9882e-07
3.98295e-07
4.01441e-07
3.95717e-07
3.99823e-07
3.72277e-07
4.18867e-07
3.98463e-07
3.98006e-07
3.98785e-07
3.97901e-07
3.98539e-07
3.98641e-07
3.98705e-07
3.98673e-07
3.9973e-07
3.97806e-07
3.99366e-07
3.98006e-07
4.00001e-07
3.97895e-07
3.99918e-07
3.97742e-07
3.99294e-07
3.98269e-07
3.98932e-07
3.99337e-07
3.99306e-07
3.98414e-07
3.99451e-07
3.99208e-07
3.99796e-07
3.99506e-07
3.99368e-07
3.98745e-07
3.99751e-07
3.98509e-07
4.00003e-07
3.99253e-07
3.99589e-07
3.96982e-07
4.01064e-07
3.97368e-07
4.01463e-07
3.73279e-07
4.20646e-07
3.9833e-07
3.9909e-07
3.98488e-07
3.99371e-07
3.98706e-07
3.98821e-07
3.98806e-07
3.98746e-07
3.98373e-07
3.99524e-07
3.97957e-07
3.99248e-07
3.97613e-07
3.99801e-07
3.97648e-07
4.00015e-07
3.9832e-07
3.98734e-07
3.98057e-07
3.98935e-07
3.97445e-07
3.99085e-07
3.98086e-07
3.99253e-07
3.97011e-07
3.98398e-07
3.9808e-07
3.98184e-07
3.98347e-07
3.98579e-07
3.98006e-07
3.99483e-07
3.97996e-07
3.9993e-07
3.97261e-07
4.00452e-07
3.9597e-07
4.02804e-07
3.73084e-07
4.17224e-07
3.98346e-07
3.98405e-07
3.99031e-07
3.98219e-07
3.9876e-07
3.98807e-07
3.98676e-07
3.98613e-07
3.98948e-07
3.97995e-07
3.99449e-07
3.98081e-07
3.99754e-07
3.97838e-07
4.00216e-07
3.97948e-07
3.99572e-07
3.97921e-07
3.99888e-07
3.98744e-07
3.99545e-07
3.98847e-07
3.99112e-07
3.98366e-07
3.99324e-07
3.99017e-07
3.99043e-07
3.98504e-07
3.9965e-07
3.98287e-07
3.99342e-07
3.98674e-07
3.98917e-07
3.99179e-07
3.99791e-07
3.97907e-07
3.99968e-07
3.96156e-07
4.01058e-07
3.74945e-07
4.19331e-07
3.98211e-07
3.98556e-07
3.9809e-07
3.99045e-07
3.98927e-07
3.98814e-07
3.98499e-07
3.98499e-07
3.98548e-07
3.99391e-07
3.97838e-07
3.99777e-07
3.97454e-07
3.9946e-07
3.97724e-07
3.99188e-07
3.98126e-07
3.99368e-07
3.9827e-07
3.98749e-07
3.97647e-07
3.98997e-07
3.97828e-07
3.98721e-07
3.98409e-07
3.99181e-07
3.98359e-07
3.99748e-07
3.97801e-07
3.9865e-07
3.98603e-07
3.99074e-07
3.97944e-07
3.99176e-07
3.97707e-07
4.00195e-07
3.97133e-07
4.00589e-07
3.96206e-07
4.02015e-07
3.74157e-07
4.1802e-07
3.98492e-07
3.98339e-07
3.98707e-07
3.98155e-07
3.98603e-07
3.98505e-07
3.98413e-07
3.98534e-07
3.98863e-07
3.98021e-07
3.99775e-07
3.97893e-07
4.0038e-07
3.99131e-07
4.02029e-07
3.97915e-07
3.99633e-07
3.98918e-07
3.98976e-07
3.98954e-07
4.00121e-07
3.98094e-07
3.99642e-07
3.98325e-07
3.99718e-07
3.98352e-07
3.99265e-07
3.98201e-07
3.99667e-07
3.98935e-07
3.98998e-07
3.98623e-07
3.98894e-07
3.99195e-07
3.98847e-07
3.98499e-07
4.00001e-07
3.97573e-07
4.01488e-07
3.96125e-07
4.00981e-07
3.75418e-07
4.18794e-07
3.98119e-07
3.98532e-07
3.98484e-07
3.99016e-07
3.98415e-07
3.9836e-07
3.98433e-07
3.98807e-07
3.98469e-07
3.99241e-07
3.97629e-07
3.99332e-07
3.97729e-07
3.98748e-07
3.97873e-07
3.97226e-07
3.98059e-07
3.99094e-07
3.9739e-07
3.98796e-07
3.97993e-07
3.99141e-07
3.97742e-07
3.99222e-07
3.98222e-07
3.98716e-07
3.98195e-07
3.98666e-07
3.98091e-07
3.98533e-07
3.98343e-07
3.9911e-07
3.98521e-07
3.99321e-07
3.97956e-07
3.99094e-07
3.97679e-07
4.00123e-07
3.96855e-07
4.0094e-07
3.96429e-07
4.01096e-07
3.75275e-07
4.18024e-07
3.98364e-07
3.97904e-07
3.98501e-07
3.97565e-07
3.98268e-07
3.98364e-07
3.98723e-07
3.97747e-07
3.99473e-07
3.98119e-07
3.99731e-07
3.97469e-07
3.99661e-07
3.98585e-07
3.99805e-07
3.98246e-07
4.00137e-07
3.98634e-07
4.00457e-07
3.99385e-07
3.99374e-07
3.98749e-07
4.00007e-07
3.98473e-07
3.99595e-07
3.9857e-07
3.99717e-07
3.98877e-07
3.99124e-07
3.99051e-07
3.99162e-07
3.98379e-07
3.98891e-07
3.98364e-07
3.98644e-07
3.98666e-07
3.99389e-07
3.98174e-07
3.99899e-07
3.97364e-07
4.00658e-07
3.97141e-07
3.99779e-07
3.75324e-07
4.18734e-07
3.9742e-07
3.98648e-07
3.9862e-07
3.99683e-07
3.98524e-07
3.98652e-07
3.9859e-07
3.99899e-07
3.95032e-07
3.99528e-07
3.9796e-07
4.00187e-07
3.97701e-07
3.99004e-07
3.9818e-07
3.99042e-07
3.98993e-07
3.98611e-07
3.99497e-07
3.97294e-07
3.98677e-07
3.98587e-07
3.98765e-07
3.99414e-07
3.98187e-07
3.98571e-07
3.98552e-07
3.98364e-07
3.98198e-07
3.99015e-07
3.97754e-07
3.99369e-07
3.98094e-07
3.98992e-07
3.98471e-07
3.99293e-07
3.98168e-07
3.99657e-07
3.97784e-07
3.99588e-07
3.97727e-07
3.99619e-07
3.96651e-07
4.00314e-07
3.74161e-07
4.18303e-07
3.9947e-07
3.97562e-07
3.97956e-07
3.97782e-07
3.98584e-07
3.9859e-07
3.98521e-07
3.98471e-07
4.03257e-07
3.99029e-07
3.99423e-07
3.9759e-07
3.99942e-07
3.97928e-07
3.9968e-07
3.98524e-07
4.00391e-07
3.98268e-07
4.0041e-07
3.97473e-07
4.00052e-07
3.98815e-07
3.98998e-07
3.98057e-07
3.9928e-07
3.98201e-07
3.99898e-07
3.98712e-07
3.99429e-07
3.98783e-07
3.99781e-07
3.98737e-07
3.98962e-07
3.98323e-07
3.99203e-07
3.98589e-07
3.99142e-07
3.98562e-07
3.99209e-07
3.98463e-07
3.99932e-07
3.97737e-07
4.00266e-07
3.96682e-07
4.0132e-07
3.73615e-07
4.19144e-07
3.97755e-07
3.99328e-07
3.98536e-07
3.98435e-07
3.98597e-07
3.9859e-07
3.98551e-07
3.98533e-07
3.96503e-07
3.97926e-07
3.97252e-07
3.99632e-07
3.98453e-07
3.99337e-07
3.9814e-07
3.99059e-07
3.98734e-07
3.98737e-07
3.98923e-07
3.98131e-07
3.99e-07
3.98003e-07
3.98178e-07
3.99057e-07
3.98384e-07
3.99168e-07
3.98515e-07
3.98314e-07
3.9817e-07
3.98928e-07
3.97684e-07
3.98586e-07
3.98359e-07
3.9905e-07
3.9867e-07
3.98743e-07
3.98587e-07
3.99121e-07
3.98274e-07
3.99213e-07
3.98006e-07
3.99883e-07
3.96905e-07
4.00821e-07
3.96659e-07
4.02944e-07
3.73199e-07
4.1847e-07
3.98358e-07
3.97903e-07
3.98691e-07
3.98449e-07
3.98602e-07
3.98501e-07
3.98508e-07
3.98621e-07
3.98522e-07
3.98802e-07
4.00318e-07
3.98551e-07
3.99015e-07
3.98204e-07
3.99682e-07
3.9883e-07
3.98833e-07
3.99001e-07
3.99694e-07
3.98351e-07
3.99585e-07
3.99408e-07
3.99844e-07
3.98908e-07
3.99787e-07
3.98347e-07
3.99332e-07
3.98332e-07
3.99714e-07
3.98342e-07
3.99545e-07
3.98822e-07
3.9913e-07
3.98698e-07
3.98772e-07
3.98112e-07
3.99245e-07
3.98338e-07
3.99009e-07
3.98531e-07
3.9945e-07
3.98285e-07
3.99866e-07
3.97718e-07
3.99698e-07
3.96175e-07
4.02297e-07
3.74557e-07
4.18085e-07
3.97661e-07
3.98723e-07
3.97832e-07
3.98445e-07
3.98558e-07
3.98481e-07
3.98566e-07
3.98634e-07
3.9831e-07
3.99349e-07
3.9781e-07
3.99475e-07
3.9741e-07
3.99631e-07
3.97896e-07
3.98741e-07
3.97869e-07
3.99105e-07
3.98878e-07
3.99385e-07
3.98953e-07
3.98541e-07
3.98296e-07
3.98712e-07
3.99081e-07
3.98758e-07
3.98004e-07
3.99101e-07
3.98738e-07
3.98492e-07
3.98345e-07
3.99342e-07
3.97729e-07
3.98863e-07
3.98598e-07
3.99442e-07
3.98578e-07
3.9897e-07
3.9867e-07
3.99148e-07
3.98112e-07
3.99154e-07
3.98117e-07
4.00274e-07
3.97845e-07
4.00053e-07
3.9593e-07
4.01406e-07
3.75519e-07
4.1761e-07
3.99479e-07
3.98093e-07
3.98385e-07
3.98687e-07
3.98619e-07
3.98587e-07
3.98462e-07
3.98522e-07
3.99016e-07
3.98216e-07
3.99277e-07
3.98244e-07
4.00513e-07
3.97921e-07
3.99926e-07
3.99459e-07
4.00441e-07
3.98245e-07
3.99299e-07
3.98435e-07
3.9952e-07
3.98437e-07
3.99722e-07
3.98861e-07
3.99358e-07
3.97418e-07
3.99629e-07
3.98856e-07
3.99637e-07
3.98167e-07
3.99444e-07
3.98866e-07
3.99229e-07
3.99208e-07
3.99101e-07
3.984e-07
3.99099e-07
3.98104e-07
3.98867e-07
3.98434e-07
3.99094e-07
3.98114e-07
3.9893e-07
3.97854e-07
3.99814e-07
3.96918e-07
4.00446e-07
3.9725e-07
4.01175e-07
3.75155e-07
4.18756e-07
3.97356e-07
3.98775e-07
3.99204e-07
3.98526e-07
3.98577e-07
3.98587e-07
3.98617e-07
3.98481e-07
3.9848e-07
3.99384e-07
3.98078e-07
3.99552e-07
3.97767e-07
3.99797e-07
3.98103e-07
3.99034e-07
3.97134e-07
3.99194e-07
3.98019e-07
3.98729e-07
3.98403e-07
3.99224e-07
3.98422e-07
3.98405e-07
3.98755e-07
3.98943e-07
3.98941e-07
3.99021e-07
3.97882e-07
3.98844e-07
3.98423e-07
3.98899e-07
3.97509e-07
3.99518e-07
3.97887e-07
3.98611e-07
3.98199e-07
3.99216e-07
3.98518e-07
3.98744e-07
3.98384e-07
3.99496e-07
3.98552e-07
3.99282e-07
3.97528e-07
4.00471e-07
3.96653e-07
4.0013e-07
3.96473e-07
4.00812e-07
3.75103e-07
4.18098e-07
3.98968e-07
3.97661e-07
3.97869e-07
3.98284e-07
3.98564e-07
3.98466e-07
3.9851e-07
3.98475e-07
3.98703e-07
3.98262e-07
3.98933e-07
3.9829e-07
3.99483e-07
3.98139e-07
3.99897e-07
3.98692e-07
4.0041e-07
3.98377e-07
3.99497e-07
3.99192e-07
3.99505e-07
3.98644e-07
3.99883e-07
3.99026e-07
3.99616e-07
3.98356e-07
3.99828e-07
3.9842e-07
3.99682e-07
3.98535e-07
3.98995e-07
3.98863e-07
3.99255e-07
3.98965e-07
3.99249e-07
3.98607e-07
3.99054e-07
3.98312e-07
3.99059e-07
3.98022e-07
3.99109e-07
3.98365e-07
3.99116e-07
3.98381e-07
3.9965e-07
3.97745e-07
4.00665e-07
3.97816e-07
4.003e-07
3.9709e-07
3.99903e-07
3.74992e-07
4.18878e-07
3.97459e-07
3.99154e-07
3.97461e-07
3.98439e-07
3.9849e-07
3.98436e-07
3.9844e-07
3.98692e-07
3.98452e-07
3.98883e-07
3.98234e-07
3.9951e-07
3.97546e-07
3.9917e-07
3.97996e-07
3.99847e-07
3.98342e-07
3.98985e-07
3.98443e-07
3.98542e-07
3.98422e-07
3.9902e-07
3.98559e-07
3.98444e-07
3.98957e-07
3.98479e-07
3.98402e-07
3.98334e-07
3.98508e-07
3.98621e-07
3.98371e-07
3.99202e-07
3.98183e-07
3.98824e-07
3.98514e-07
3.99262e-07
3.9861e-07
3.99258e-07
3.98466e-07
3.99553e-07
3.98163e-07
3.98971e-07
3.9852e-07
3.99577e-07
3.98128e-07
3.995e-07
3.98261e-07
3.99398e-07
3.98087e-07
4.00508e-07
3.97003e-07
4.01289e-07
3.7588e-07
4.1821e-07
3.99299e-07
3.98338e-07
4.0002e-07
3.98635e-07
3.98453e-07
3.98518e-07
3.98484e-07
3.98501e-07
3.98825e-07
3.9847e-07
3.99462e-07
3.98038e-07
4.00074e-07
3.98631e-07
4.002e-07
3.98345e-07
3.98735e-07
3.98828e-07
4.00031e-07
3.98305e-07
4.00308e-07
3.97741e-07
4.00486e-07
3.97979e-07
3.99714e-07
3.9826e-07
3.99448e-07
3.99067e-07
4.00017e-07
3.98273e-07
3.99809e-07
3.98618e-07
3.99127e-07
3.98672e-07
3.99286e-07
3.98383e-07
3.99155e-07
3.98925e-07
3.98499e-07
3.9836e-07
3.99018e-07
3.98308e-07
3.98823e-07
3.98286e-07
3.99155e-07
3.98399e-07
3.99136e-07
3.97996e-07
3.99947e-07
3.97761e-07
4.00524e-07
3.96074e-07
4.00428e-07
3.757e-07
4.2025e-07
3.9729e-07
3.98507e-07
3.97848e-07
3.98514e-07
3.9842e-07
3.98472e-07
3.98491e-07
3.98809e-07
3.98367e-07
3.99411e-07
3.97931e-07
3.99474e-07
3.98423e-07
3.98506e-07
3.9732e-07
4.00714e-07
3.98748e-07
3.99184e-07
3.9808e-07
3.99767e-07
3.97966e-07
3.99033e-07
3.99017e-07
3.9828e-07
3.99561e-07
3.99609e-07
3.98744e-07
3.98664e-07
3.9813e-07
3.99271e-07
3.98374e-07
3.99309e-07
3.98106e-07
3.99507e-07
3.98191e-07
3.99208e-07
3.98177e-07
3.98476e-07
3.98228e-07
3.99445e-07
3.98509e-07
3.99099e-07
3.98479e-07
3.98863e-07
3.98049e-07
3.99278e-07
3.9848e-07
3.99602e-07
3.98171e-07
3.99631e-07
3.96984e-07
4.01491e-07
3.9645e-07
4.009e-07
3.73727e-07
4.18795e-07
3.98995e-07
3.96525e-07
3.9849e-07
3.97763e-07
3.98385e-07
3.98455e-07
3.98652e-07
3.98538e-07
3.99011e-07
3.98199e-07
3.99915e-07
3.9834e-07
3.99311e-07
3.98426e-07
4.00806e-07
3.9805e-07
3.9905e-07
3.99326e-07
4.00507e-07
3.97933e-07
4.01512e-07
3.98858e-07
3.97837e-07
3.98538e-07
3.99445e-07
3.97356e-07
3.99326e-07
3.97992e-07
3.99342e-07
3.99087e-07
3.99327e-07
3.98533e-07
3.98722e-07
3.98496e-07
3.98427e-07
3.98138e-07
3.99606e-07
3.99085e-07
3.99836e-07
3.98791e-07
3.98949e-07
3.9818e-07
3.99196e-07
3.98562e-07
3.98929e-07
3.98408e-07
3.99072e-07
3.981e-07
3.99364e-07
3.98009e-07
3.99647e-07
3.96937e-07
4.01348e-07
3.96688e-07
4.01005e-07
3.748e-07
4.19365e-07
3.97703e-07
4.01214e-07
3.96428e-07
3.98733e-07
3.98461e-07
3.98586e-07
3.98599e-07
3.98593e-07
3.98436e-07
3.99615e-07
3.97695e-07
4.00345e-07
3.9743e-07
3.99979e-07
3.98168e-07
4.00157e-07
3.9817e-07
3.97246e-07
3.97709e-07
3.98724e-07
3.98249e-07
3.97419e-07
3.99061e-07
4.00097e-07
3.98585e-07
3.98822e-07
3.99661e-07
3.98479e-07
3.99113e-07
3.99149e-07
3.97968e-07
3.98904e-07
3.98452e-07
3.98986e-07
3.98188e-07
3.99058e-07
3.98754e-07
3.99535e-07
3.97715e-07
3.98587e-07
3.98617e-07
3.99022e-07
3.98468e-07
3.98874e-07
3.98463e-07
3.98865e-07
3.98531e-07
3.99202e-07
3.97684e-07
3.99736e-07
3.98408e-07
4.00071e-07
3.97377e-07
4.005e-07
3.95891e-07
4.01578e-07
3.74402e-07
4.19582e-07
3.98734e-07
3.9741e-07
4.00356e-07
3.98753e-07
3.98557e-07
3.98622e-07
3.9857e-07
3.98433e-07
3.98489e-07
3.98258e-07
4.00103e-07
3.97281e-07
4.00768e-07
3.9756e-07
3.99555e-07
3.98092e-07
3.99145e-07
3.98287e-07
4.02537e-07
3.99085e-07
3.9912e-07
3.99258e-07
3.98886e-07
3.98887e-07
4.00556e-07
3.98546e-07
3.9916e-07
3.98201e-07
3.99221e-07
3.98127e-07
3.9951e-07
3.9856e-07
3.99513e-07
3.98894e-07
3.99373e-07
3.98647e-07
3.99889e-07
3.9764e-07
3.98187e-07
3.9896e-07
3.99175e-07
3.98264e-07
3.99387e-07
3.98591e-07
3.99075e-07
3.98525e-07
3.99153e-07
3.98445e-07
3.99212e-07
3.98883e-07
3.99355e-07
3.98014e-07
4.00084e-07
3.97364e-07
4.00713e-07
3.96524e-07
4.00596e-07
3.74435e-07
4.1997e-07
3.97501e-07
3.98422e-07
3.99092e-07
3.98486e-07
3.98521e-07
3.98566e-07
3.98538e-07
3.98486e-07
3.98394e-07
3.99217e-07
3.9763e-07
4.00501e-07
3.976e-07
4.01597e-07
3.98783e-07
3.98304e-07
3.98893e-07
3.99429e-07
3.9771e-07
3.97891e-07
3.985e-07
3.98929e-07
3.9895e-07
3.99544e-07
3.98244e-07
3.9781e-07
3.98913e-07
3.9981e-07
3.98977e-07
3.99058e-07
3.98706e-07
3.98917e-07
3.98551e-07
3.98485e-07
3.98334e-07
3.99234e-07
3.9869e-07
3.98406e-07
3.99141e-07
4.00105e-07
3.97664e-07
3.98996e-07
3.98515e-07
3.98626e-07
3.98203e-07
3.99169e-07
3.98083e-07
3.98697e-07
3.98099e-07
3.9904e-07
3.98299e-07
3.99123e-07
3.98561e-07
4.0012e-07
3.97977e-07
4.00377e-07
3.96705e-07
4.01576e-07
3.73489e-07
4.18533e-07
3.99145e-07
3.98345e-07
3.97736e-07
3.98453e-07
3.98492e-07
3.98403e-07
3.98513e-07
3.98437e-07
3.98763e-07
3.98253e-07
3.99942e-07
3.97871e-07
3.99561e-07
3.97761e-07
3.99065e-07
3.98069e-07
4.0017e-07
3.9825e-07
3.99718e-07
3.99547e-07
4.00028e-07
3.99435e-07
3.99817e-07
3.98165e-07
3.99372e-07
3.99069e-07
3.99617e-07
3.98513e-07
3.98294e-07
3.98653e-07
4.01249e-07
3.99103e-07
3.99469e-07
3.98415e-07
3.9944e-07
3.98687e-07
3.99269e-07
3.98489e-07
3.99656e-07
3.97468e-07
3.98861e-07
3.98933e-07
3.99087e-07
3.98189e-07
3.99428e-07
3.98494e-07
3.9918e-07
3.98133e-07
3.99205e-07
3.9857e-07
3.98896e-07
3.98193e-07
3.99008e-07
3.98251e-07
3.9946e-07
3.98053e-07
4.00109e-07
3.95871e-07
4.00613e-07
3.75307e-07
4.18985e-07
3.97894e-07
3.98337e-07
3.98461e-07
3.98818e-07
3.98567e-07
3.98483e-07
3.98558e-07
3.98437e-07
3.98332e-07
3.99306e-07
3.97363e-07
3.99892e-07
3.97446e-07
3.99872e-07
3.98298e-07
4.00355e-07
3.98397e-07
3.98871e-07
3.98478e-07
3.99012e-07
3.97411e-07
3.99479e-07
3.97403e-07
3.99053e-07
3.98805e-07
3.98984e-07
3.98848e-07
3.98942e-07
3.98909e-07
3.97725e-07
3.98439e-07
3.9742e-07
3.98578e-07
3.98506e-07
3.98842e-07
3.9858e-07
3.98498e-07
3.991e-07
3.98609e-07
3.98989e-07
3.98802e-07
3.99195e-07
3.98172e-07
3.98789e-07
3.98268e-07
3.99131e-07
3.98231e-07
3.98904e-07
3.9818e-07
3.98983e-07
3.98348e-07
3.99642e-07
3.98553e-07
3.99325e-07
3.98624e-07
3.98337e-07
3.9832e-07
4.00944e-07
3.96634e-07
4.00364e-07
3.75045e-07
4.18781e-07
3.98755e-07
3.9888e-07
3.99138e-07
3.98454e-07
3.98488e-07
3.98425e-07
3.98523e-07
3.98486e-07
3.98572e-07
3.98492e-07
4.0037e-07
3.97275e-07
4.00707e-07
3.96886e-07
4.00411e-07
3.97851e-07
4.01297e-07
3.97656e-07
3.99645e-07
3.99016e-07
4.00565e-07
3.98266e-07
3.99839e-07
3.98588e-07
4.0037e-07
3.98971e-07
3.9975e-07
3.99098e-07
3.99235e-07
3.98285e-07
4.00173e-07
3.98757e-07
3.99617e-07
3.9843e-07
3.99117e-07
3.98444e-07
3.99645e-07
3.98326e-07
3.99263e-07
3.97792e-07
3.9967e-07
3.98015e-07
3.99012e-07
3.98564e-07
3.99482e-07
3.98194e-07
3.99434e-07
3.98387e-07
3.98933e-07
3.98461e-07
3.98981e-07
3.98462e-07
3.9908e-07
3.97917e-07
3.98847e-07
3.98623e-07
3.99834e-07
3.97333e-07
4.00265e-07
3.97299e-07
3.99653e-07
3.74504e-07
4.20003e-07
3.979e-07
3.9837e-07
3.97552e-07
3.98545e-07
3.98373e-07
3.98574e-07
3.98445e-07
3.98465e-07
3.98493e-07
3.99047e-07
3.97781e-07
4.00302e-07
3.97521e-07
4.01061e-07
3.98682e-07
3.99613e-07
3.98493e-07
3.99466e-07
3.98506e-07
3.99362e-07
3.97659e-07
3.98977e-07
3.9901e-07
3.98603e-07
3.98877e-07
3.98225e-07
3.9903e-07
3.98241e-07
3.99067e-07
3.98658e-07
3.98556e-07
3.98247e-07
3.99177e-07
3.98598e-07
3.98733e-07
3.99593e-07
3.98541e-07
4.00022e-07
3.98184e-07
3.98612e-07
3.98884e-07
3.99383e-07
3.98604e-07
3.99195e-07
3.9838e-07
3.99088e-07
3.97912e-07
3.98966e-07
3.98235e-07
3.98977e-07
3.98177e-07
3.98737e-07
3.98395e-07
3.99516e-07
3.98031e-07
3.99644e-07
3.9838e-07
3.99328e-07
3.97901e-07
4.0039e-07
3.968e-07
4.01993e-07
3.74104e-07
4.18089e-07
3.98536e-07
3.9799e-07
3.9915e-07
3.98512e-07
3.98546e-07
3.98218e-07
3.98468e-07
3.98529e-07
3.98602e-07
3.98599e-07
3.99524e-07
3.98235e-07
3.99799e-07
3.98396e-07
3.99453e-07
3.9855e-07
4.00125e-07
3.9747e-07
4.00369e-07
3.99666e-07
3.98834e-07
3.99169e-07
3.98679e-07
3.98654e-07
3.99519e-07
3.98308e-07
3.99541e-07
3.98167e-07
3.99804e-07
3.9805e-07
3.99487e-07
3.98826e-07
4.00481e-07
3.98932e-07
3.99162e-07
3.98427e-07
3.98427e-07
3.98307e-07
3.98667e-07
3.98527e-07
3.99331e-07
3.97896e-07
3.99187e-07
3.97911e-07
3.98827e-07
3.98587e-07
3.99469e-07
3.985e-07
3.99087e-07
3.98765e-07
3.99043e-07
3.98709e-07
3.98989e-07
3.984e-07
3.99169e-07
3.97843e-07
3.98906e-07
3.98541e-07
3.99356e-07
3.98199e-07
4.00495e-07
3.96561e-07
4.00957e-07
3.7584e-07
4.19382e-07
3.97718e-07
3.98789e-07
3.97937e-07
3.9861e-07
3.97629e-07
3.98472e-07
3.98595e-07
3.98461e-07
3.98477e-07
3.99212e-07
3.98042e-07
3.99562e-07
3.97477e-07
4.0043e-07
3.97899e-07
3.99013e-07
3.97967e-07
4.00847e-07
3.98817e-07
3.98446e-07
3.98989e-07
3.99111e-07
3.9885e-07
3.99761e-07
3.98161e-07
3.99364e-07
3.98505e-07
3.99094e-07
3.99531e-07
3.98356e-07
3.9959e-07
3.98606e-07
3.98793e-07
3.97308e-07
3.98582e-07
3.99105e-07
3.98895e-07
3.99857e-07
3.99138e-07
3.97829e-07
3.99155e-07
3.98693e-07
3.98921e-07
3.9892e-07
3.98989e-07
3.99048e-07
3.98245e-07
3.99467e-07
3.9798e-07
3.98429e-07
3.98163e-07
3.98691e-07
3.9834e-07
3.98616e-07
3.98494e-07
3.99342e-07
3.98473e-07
3.9884e-07
3.98556e-07
3.99277e-07
3.97278e-07
4.00445e-07
3.97356e-07
4.01356e-07
3.75318e-07
4.18335e-07
3.9864e-07
3.97715e-07
3.98615e-07
3.97537e-07
3.99194e-07
3.98622e-07
3.98483e-07
3.98495e-07
3.98518e-07
3.98376e-07
3.99799e-07
3.97929e-07
4.00189e-07
3.976e-07
3.99786e-07
3.97518e-07
4.00354e-07
3.97357e-07
3.98046e-07
3.98356e-07
3.98936e-07
3.98278e-07
3.99286e-07
3.98111e-07
3.99093e-07
3.98735e-07
3.98918e-07
3.98823e-07
3.99769e-07
3.99438e-07
3.99532e-07
3.99244e-07
3.99242e-07
3.98669e-07
3.9937e-07
3.97967e-07
3.98996e-07
3.98401e-07
3.98537e-07
3.98711e-07
4.00158e-07
3.98469e-07
3.99552e-07
3.98086e-07
3.98836e-07
3.98143e-07
3.99313e-07
3.98348e-07
3.99378e-07
3.98445e-07
3.99018e-07
3.98692e-07
3.99104e-07
3.98144e-07
3.99239e-07
3.98447e-07
3.99182e-07
3.98629e-07
3.99179e-07
3.97967e-07
4.00039e-07
3.97957e-07
4.00282e-07
3.96117e-07
4.00819e-07
3.75513e-07
4.18569e-07
3.97853e-07
3.98841e-07
3.98432e-07
3.99614e-07
3.98465e-07
3.98345e-07
3.98534e-07
3.9846e-07
3.98493e-07
3.99165e-07
3.97505e-07
3.99846e-07
3.97368e-07
4.00173e-07
3.98093e-07
4.00942e-07
3.98321e-07
3.99609e-07
3.99085e-07
3.99532e-07
3.98407e-07
4.00264e-07
3.9932e-07
4.00017e-07
3.98981e-07
3.98837e-07
3.99141e-07
3.99248e-07
3.9879e-07
3.98321e-07
3.98438e-07
3.98798e-07
3.97988e-07
3.98592e-07
3.98883e-07
3.98398e-07
3.99531e-07
3.98772e-07
3.99045e-07
3.98996e-07
3.98982e-07
3.97744e-07
3.98517e-07
3.98945e-07
3.98932e-07
3.99307e-07
3.98393e-07
3.98955e-07
3.98254e-07
3.99087e-07
3.9794e-07
3.98778e-07
3.98331e-07
3.99066e-07
3.98263e-07
3.9875e-07
3.98318e-07
3.9911e-07
3.98077e-07
3.99219e-07
3.98311e-07
3.99241e-07
3.98078e-07
4.00914e-07
3.95999e-07
4.01744e-07
3.74821e-07
4.17888e-07
3.98687e-07
3.97781e-07
3.98284e-07
3.97998e-07
3.98322e-07
3.98449e-07
3.98491e-07
3.98391e-07
3.98494e-07
3.98578e-07
3.99851e-07
3.98137e-07
3.99646e-07
3.98409e-07
4.00617e-07
3.97597e-07
3.99947e-07
3.98837e-07
3.99887e-07
3.97852e-07
4.00697e-07
3.97874e-07
3.99447e-07
3.97118e-07
3.98291e-07
3.9921e-07
3.9918e-07
3.98674e-07
3.99099e-07
3.98779e-07
3.99772e-07
3.99676e-07
3.99117e-07
4.00031e-07
3.99151e-07
3.9886e-07
3.99124e-07
3.98229e-07
3.9881e-07
3.98514e-07
3.98951e-07
3.986e-07
3.99409e-07
3.98593e-07
3.99563e-07
3.98326e-07
3.99025e-07
3.98272e-07
3.99045e-07
3.98484e-07
3.99296e-07
3.98665e-07
3.98814e-07
3.98567e-07
3.99019e-07
3.98137e-07
3.99307e-07
3.98411e-07
3.99935e-07
3.98356e-07
3.9969e-07
3.98249e-07
3.99417e-07
3.97434e-07
4.01491e-07
3.95846e-07
4.03443e-07
3.74875e-07
4.19357e-07
3.97978e-07
3.99497e-07
3.98396e-07
3.98404e-07
3.9849e-07
3.98525e-07
3.98563e-07
3.98406e-07
3.98477e-07
3.98791e-07
3.98256e-07
4.00016e-07
3.98014e-07
3.99783e-07
3.9845e-07
4.00331e-07
3.98669e-07
3.99943e-07
3.98553e-07
3.99652e-07
3.99622e-07
3.99411e-07
3.98687e-07
3.99021e-07
4.00836e-07
3.99591e-07
3.9853e-07
3.99475e-07
3.98883e-07
3.99112e-07
3.99421e-07
3.98255e-07
3.98351e-07