/*--------------------------------*- C++ -*----------------------------------*\
| =========                 |                                                 |
| \\      /  F ield         | OpenFOAM: The Open Source CFD Toolbox           |
|  \\    /   O peration     | Version:  2206                                  |
|   \\  /    A nd           | Website:  www.openfoam.com                      |
|    \\/     M anipulation  |                                                 |
\*---------------------------------------------------------------------------*/
FoamFile
{
    version     2.0;
    format      ascii;
    arch        "LSB;label=32;scalar=64";
    class       volScalarField;
    location    "170";
    object      p;
}
// * * * * * * * * * * * * * * * * * * * * * * * * * * * * * * * * * * * * * //

dimensions      [1 -1 -2 0 0 0 0];

internalField   nonuniform List<scalar> 
93840
(
2.11689
0.609428
2.11549
1.40001
0.620074
2.00154
0.654428
1.17167
0.679652
1.80164
1.14352
0.952575
1.1457
0.779345
1.67783
0.974896
1.07615
0.945852
1.26479
0.843954
1.64044
1.08504
0.972452
1.0998
0.811814
1.18843
0.808713
1.60511
0.973756
1.06778
0.926354
1.11673
0.857682
1.21455
0.857136
1.63563
1.09254
0.96518
1.09123
0.99494
1.15949
0.838528
1.11037
0.878366
1.63478
0.975383
1.0837
0.956958
1.08361
0.900319
1.18144
0.867861
1.11986
0.902131
1.63442
1.09433
0.971483
1.05824
0.994457
1.14687
0.868692
1.17493
0.970435
1.10831
0.910807
1.64035
0.982459
1.08779
0.956462
1.09043
0.92945
1.14532
0.822912
1.08834
0.972736
1.12148
0.933398
1.62951
1.09823
0.966112
1.08491
0.972643
1.07726
0.879131
1.15278
0.94157
1.07237
1.00909
1.10923
0.896407
1.62556
0.989079
1.09604
0.955714
1.07067
1.01843
1.13133
0.896293
1.14925
1.00093
1.11577
0.950612
1.08872
0.901315
1.62195
1.0968
0.986934
1.04104
1.01494
1.0302
0.901924
1.1171
0.909308
1.10641
1.00413
1.08448
0.983175
1.11058
0.882987
1.62265
0.989439
1.09134
0.995855
1.05638
0.994592
1.13577
0.924984
1.09961
1.02501
1.0761
1.00272
1.08097
0.934529
1.1129
0.889749
1.62283
1.09805
0.989125
1.04788
0.982244
1.0581
0.895116
1.09634
0.979691
1.0869
0.991428
1.07736
0.985504
1.09367
0.9589
1.12403
0.87434
1.62628
0.990496
1.08664
0.973117
1.06259
0.93253
1.13299
0.975133
1.07707
0.998471
1.06237
1.00142
1.05892
0.968672
1.0855
0.943598
1.12075
0.884479
1.62769
1.10641
0.971384
1.06256
0.966182
1.08713
0.936084
1.08366
0.970262
1.07594
0.976334
1.0851
0.980865
1.08978
0.96767
1.06984
0.952423
1.1212
0.88381
1.62723
1.00581
1.11518
0.93631
1.0738
0.965262
1.11107
0.978969
1.0833
0.996886
1.07295
0.98616
1.06443
0.978022
1.08277
0.966463
1.06828
0.920082
1.12107
0.88938
1.62546
1.09799
1.00106
1.09441
0.999517
1.07639
0.960825
1.08164
0.972425
1.08132
0.971803
1.07539
0.975164
1.08771
0.972329
1.0823
0.965174
1.07729
0.951119
1.12144
0.896709
1.62479
1.00097
1.10835
0.9334
1.05376
0.963967
1.08568
0.970826
1.08203
0.985836
1.06545
0.994235
1.08969
0.983215
1.06105
0.988759
1.06608
0.974606
1.0791
0.946633
1.12044
0.896275
1.62396
1.09767
1.00845
1.09843
1.00519
1.05685
0.932371
1.0748
0.974392
1.07831
0.972885
1.07631
0.994095
1.0714
0.989355
1.08428
0.982552
1.06495
0.968698
1.08223
0.985277
1.11742
0.903366
1.62257
0.999348
1.09324
0.986079
1.03028
0.991663
1.10168
1.01107
1.08837
0.980142
1.08176
1.00549
1.06625
0.998672
1.07392
0.9973
1.0603
1.00902
1.06113
0.949833
1.0691
0.991225
1.11609
0.909127
1.62002
1.09834
1.01107
1.08194
0.995077
1.04834
0.905416
1.06174
0.950402
1.0552
0.991924
1.07888
1.0013
1.06743
0.980287
1.08418
0.972073
1.06321
0.996805
1.06933
0.978456
1.05966
1.00102
1.11116
0.902229
1.61777
0.991596
1.08971
0.997628
1.05681
0.997367
1.10899
1.02128
1.09753
1.01803
1.08881
0.998281
1.08484
1.00088
1.08013
0.984673
1.08646
1.01037
1.05879
0.990431
1.08024
0.995896
1.0581
0.99013
1.10675
0.913925
1.61497
1.11149
0.9862
1.06222
0.942997
1.04207
0.940157
1.06671
0.974404
1.04772
0.970751
1.06218
0.991966
1.08065
0.991423
1.08092
0.985035
1.08032
0.995826
1.06073
0.971868
1.07565
1.00072
1.0561
0.981138
1.10299
0.911274
1.61283
1.01076
1.1228
0.986067
1.06725
0.941835
1.10028
1.0016
1.0734
1.02171
1.08464
1.02261
1.08929
1.00702
1.08649
0.98607
1.08997
0.987263
1.09165
0.993113
1.07099
0.995823
1.06696
0.994266
1.05865
0.972996
1.10108
0.916644
1.6111
1.10018
1.00815
1.09343
0.986561
1.07076
0.989038
1.06201
1.00713
1.06158
0.984791
1.05827
0.98298
1.05679
0.992856
1.08777
1.00048
1.07835
0.975763
1.08264
0.987113
1.064
1.01335
1.07693
0.990032
1.07783
0.987378
1.10107
0.92135
1.61143
1.02167
1.09126
0.948982
1.06576
0.936254
1.08525
0.996159
1.06623
1.02008
1.06514
1.03677
1.09752
1.0324
1.10829
1.00786
1.08642
0.992142
1.09224
0.981836
1.09676
0.989432
1.05738
1.01212
1.0735
0.98308
1.07714
0.988888
1.10274
0.935896
1.6083
1.08381
1.04903
1.11568
0.969922
1.07353
0.984556
1.04161
1.02492
1.05921
1.03028
1.07048
0.998366
1.064
0.990035
1.06753
1.00936
1.08679
0.996179
1.08594
0.982344
1.08962
1.00451
1.05259
1.00557
1.07751
0.98551
1.07756
1.01584
1.1091
0.89771
1.60473
1.00722
1.07739
0.985326
1.06166
0.973795
1.08305
1.02366
1.07168
1.02788
1.05598
1.03246
1.05863
1.04597
1.09752
1.03874
1.10863
1.00932
1.08603
1.0054
1.10412
0.996314
1.0989
1.01317
1.0653
1.00653
1.0862
0.990879
1.0762
1.00252
1.12801
0.900471
1.60038
1.09217
1.02392
1.10292
1.00971
1.04221
0.960205
1.0266
1.02252
1.02705
1.02669
1.05758
1.02728
1.07792
1.01336
1.06918
0.993463
1.06929
1.01874
1.08551
1.00652
1.09163
0.996356
1.08312
1.01091
1.05599
0.998832
1.08685
1.0052
1.06795
0.998489
1.12252
0.904455
1.59571
1.00355
1.09768
1.01619
1.0326
1.00548
1.08485
1.04955
1.06265
1.05153
1.05628
1.04916
1.05278
1.04659
1.06874
1.0479
1.09267
1.04041
1.10043
1.02246
1.08749
1.00866
1.10373
1.00561
1.09342
1.01769
1.05847
0.997404
1.08855
1.02056
1.07413
0.995369
1.11872
0.914592
1.5918
1.10196
1.01478
1.09653
1.0027
1.03848
0.962794
1.03348
1.02881
1.01903
1.03485
1.0302
1.04588
1.05675
1.03789
1.07065
1.02226
1.06512
1.00613
1.06954
1.02413
1.09094
1.00555
1.08754
1.00107
1.07489
1.00419
1.06186
0.984381
1.08062
1.01995
1.06426
1.00377
1.1138
0.924658
1.58828
1.0067
1.10681
1.00953
1.04265
0.987739
1.06876
1.04799
1.04459
1.05686
1.0438
1.05853
1.05404
1.05724
1.0542
1.0587
1.0629
1.04874
1.08152
1.04214
1.10046
1.02558
1.09205
1.01833
1.09428
1.00922
1.08333
1.01193
1.07747
1.00798
1.07459
1.01633
1.07331
0.990283
1.11014
0.931375
1.58596
1.10715
1.01848
1.09903
0.983471
1.04303
0.995355
1.04339
1.03966
1.0214
1.03416
1.02244
1.03168
1.0307
1.04278
1.0488
1.04444
1.0647
1.02474
1.06897
1.01181
1.06834
1.02654
1.08857
1.01728
1.08962
1.00003
1.07457
1.00058
1.07352
1.02256
1.07121
1.01161
1.06525
0.995549
1.10911
0.932178
1.58404
1.01598
1.10598
1.00145
1.05975
0.957104
1.04983
1.03607
1.02221
1.04049
1.03648
1.04757
1.04993
1.05686
1.05093
1.0576
1.05809
1.06241
1.05487
1.04711
1.07728
1.04283
1.0981
1.04547
1.08418
1.0219
1.08726
1.00894
1.09114
1.00438
1.06766
1.0192
1.06737
1.006
1.07896
0.988945
1.11581
0.935426
1.58215
1.1096
1.02647
1.07755
0.980751
1.06488
1.02251
1.04144
1.05247
1.02748
1.04933
1.01458
1.0463
1.02422
1.03455
1.03091
1.04777
1.04937
1.04111
1.06296
1.02596
1.06806
1.02024
1.06835
1.02914
1.08029
1.01845
1.08724
1.0089
1.0866
1.00954
1.05892
1.01791
1.06591
1.0035
1.07449
0.983169
1.1228
0.935536
1.57946
1.03106
1.10831
0.987533
1.05724
0.96262
1.03545
1.03064
1.01473
1.02491
1.02268
1.0481
1.03723
1.05036
1.04618
1.05453
1.05247
1.05839
1.05359
1.05751
1.05558
1.04747
1.07111
1.05048
1.09547
1.04852
1.08034
1.03166
1.08717
1.01957
1.09459
1.01512
1.08457
1.01357
1.08297
0.999757
1.08878
0.984046
1.12572
0.930462
1.57676
1.10329
1.03905
1.08939
0.989206
1.08209
1.03207
1.03669
1.0565
1.02334
1.06643
1.02872
1.05332
1.02297
1.04946
1.03082
1.03826
1.03448
1.0496
1.05037
1.03939
1.05567
1.03027
1.06199
1.02453
1.06802
1.03415
1.08471
1.0276
1.08203
1.01518
1.08456
1.00492
1.06958
1.00826
1.07126
0.994655
1.09034
0.982576
1.1246
0.928256
1.57323
1.03661
1.10182
0.962257
1.04852
0.964076
1.01495
1.03703
1.00998
1.02382
1.0112
1.03837
1.02708
1.0535
1.03853
1.04563
1.04796
1.05791
1.05202
1.05247
1.0526
1.05604
1.04878
1.05188
1.06791
1.05623
1.09496
1.0555
1.08501
1.03961
1.08753
1.02152
1.09334
1.01851
1.08649
1.00761
1.08199
0.989211
1.11248
0.979745
1.1322
0.924849
1.57003
1.09533
1.03349
1.11018
1.00973
1.08931
1.03916
1.03625
1.05174
1.01363
1.06802
1.02691
1.0628
1.03
1.04842
1.03576
1.04665
1.02572
1.04009
1.03779
1.04879
1.04376
1.03788
1.05785
1.03712
1.06262
1.03059
1.06861
1.04256
1.08541
1.03096
1.08274
1.01276
1.08495
0.998984
1.07905
0.997272
1.08059
0.983265
1.11362
0.976613
1.1381
0.929254
1.56648
1.03316
1.10634
0.979956
1.04431
0.972485
1.00142
1.03766
1.00992
1.03115
1.01775
1.02297
1.02595
1.03298
1.03387
1.04724
1.03398
1.04773
1.04644
1.05472
1.04233
1.04785
1.05421
1.05599
1.04669
1.05229
1.06329
1.05927
1.09069
1.05922
1.08718
1.03967
1.08608
1.0267
1.09391
1.02837
1.08113
1.00721
1.09641
0.982771
1.12013
0.973781
1.14961
0.925848
1.56322
1.08553
1.02309
1.10672
1.02055
1.08389
1.0474
1.03439
1.05029
1.01716
1.04974
1.02551
1.06514
1.02658
1.0611
1.02708
1.05347
1.03561
1.0435
1.02912
1.04114
1.0388
1.04593
1.04289
1.0402
1.05336
1.03794
1.0594
1.03527
1.0669
1.04305
1.08548
1.03402
1.08513
1.0195
1.08335
1.00912
1.08849
0.990438
1.09942
0.973161
1.12889
0.971393
1.15158
0.932752
1.55969
1.02231
1.11447
0.990452
1.0408
0.986108
1.00294
1.0411
1.0121
1.03589
1.01275
1.01863
1.01432
1.01857
1.02996
1.03283
1.02455
1.04712
1.03482
1.05048
1.04235
1.04296
1.04068
1.04762
1.04912
1.05248
1.04753
1.05834
1.06421
1.06237
1.08662
1.05656
1.08058
1.04703
1.08755
1.03192
1.0943
1.02061
1.09165
1.00684
1.10344
0.981883
1.13527
0.969741
1.15496
0.926904
1.5566
1.08774
1.02911
1.10041
1.02011
1.07502
1.04989
1.02668
1.04588
1.01688
1.03528
1.01472
1.05043
1.02076
1.06151
1.03152
1.04761
1.03827
1.04727
1.03687
1.03696
1.03114
1.0425
1.03621
1.04706
1.04263
1.04303
1.04814
1.03812
1.05822
1.0357
1.06705
1.043
1.07843
1.03283
1.08816
1.02225
1.08547
1.01251
1.09644
0.98819
1.10356
0.970216
1.13779
0.966284
1.15504
0.935057
1.55312
1.01524
1.11159
0.997421
1.03538
1.00874
1.00736
1.04288
1.01986
1.03877
1.01687
1.02112
1.01642
1.01929
1.01263
1.02428
1.0315
1.03266
1.03057
1.04457
1.03886
1.04895
1.0358
1.04317
1.03549
1.04905
1.0455
1.05232
1.04239
1.05924
1.05919
1.06422
1.08649
1.06274
1.08734
1.04639
1.08897
1.03491
1.0959
1.01279
1.09513
1.00138
1.11777
0.97904
1.1365
0.971238
1.15677
0.927468
1.54993
1.09547
1.04616
1.09349
1.00699
1.06883
1.04152
1.01557
1.04188
1.01483
1.02466
1.00981
1.04678
1.01668
1.05168
1.02108
1.05412
1.03063
1.04648
1.0297
1.04663
1.03578
1.04235
1.03459
1.0443
1.03323
1.04488
1.04168
1.04591
1.05029
1.04376
1.05703
1.04527
1.06554
1.04066
1.07669
1.0414
1.08879
1.0228
1.0892
1.02169
1.09954
0.992384
1.11412
0.979968
1.1466
0.963259
1.15614
0.938564
1.54664
1.01811
1.10058
0.989543
1.03885
1.03521
1.0075
1.04731
1.02453
1.03936
1.01935
1.04181
1.02019
1.02601
1.01887
1.02649
1.02165
1.02403
1.02776
1.03076
1.03139
1.03728
1.03591
1.04235
1.03661
1.04812
1.03363
1.04825
1.04267
1.05235
1.04093
1.05443
1.05268
1.06795
1.08457
1.06492
1.08427
1.04781
1.09069
1.03628
1.09498
1.00536
1.10072
1.00081
1.10958
0.984965
1.14165
0.967226
1.16164
0.929876
1.54319
1.09667
1.05613
1.10136
0.986521
1.06308
1.02799
1.00937
1.03572
1.01141
1.0227
1.0128
1.03903
1.02002
1.04738
1.01211
1.0352
1.02966
1.04737
1.02608
1.04267
1.03121
1.04811
1.03549
1.03878
1.03468
1.04581
1.03467
1.04527
1.03959
1.04839
1.05018
1.04073
1.05263
1.04621
1.06615
1.04449
1.07988
1.04214
1.08986
1.0289
1.09147
1.02943
1.10021
1.00423
1.10686
0.996282
1.14851
0.957328
1.162
0.939799
1.53962
1.02405
1.08945
0.99622
1.06123
1.05911
1.00232
1.04871
1.0252
1.03501
1.01883
1.0458
1.0212
1.03951
1.0243
1.02469
1.03393
1.02746
1.02421
1.02233
1.02658
1.0312
1.02766
1.03868
1.0323
1.04955
1.03261
1.04938
1.03622
1.05196
1.03959
1.05414
1.0415
1.05542
1.0529
1.06484
1.08274
1.0618
1.0827
1.04823
1.08795
1.03769
1.08613
1.02697
1.09977
1.01297
1.10408
0.988885
1.14573
0.966441
1.16599
0.934235
1.53603
1.09186
1.0569
1.10345
0.979094
1.06109
1.01801
1.01426
1.03448
1.01068
1.0212
1.01097
1.03011
1.01569
1.03899
1.02364
1.04426
1.01327
1.04778
1.02225
1.04128
1.02306
1.0414
1.03597
1.04301
1.03116
1.04056
1.03223
1.04319
1.0331
1.05036
1.04346
1.05002
1.05073
1.04421
1.05309
1.04724
1.06709
1.05074
1.08048
1.04573
1.08653
1.03399
1.0818
1.03139
1.09494
1.01918
1.10244
0.985986
1.15228
0.953184
1.16835
0.943616
1.53247
1.02235
1.07826
1.02003
1.0738
1.06781
0.991083
1.04728
1.01974
1.03435
1.01346
1.04803
1.02601
1.04766
1.03095
1.03694
1.02012
1.02879
1.02977
1.0278
1.02546
1.02486
1.0283
1.03215
1.02594
1.03668
1.03273
1.04347
1.02889
1.04576
1.03327
1.05287
1.03702
1.05618
1.04344
1.05855
1.05091
1.06581
1.07778
1.06598
1.0828
1.05547
1.08681
1.04726
1.08552
1.03344
1.08985
1.0325
1.1147
0.981264
1.15264
0.967408
1.16745
0.93883
1.52882
1.09146
1.04809
1.09544
0.991081
1.06107
1.01534
1.02877
1.03541
1.01959
1.02159
1.0161
1.02607
1.02226
1.03559
1.02231
1.04033
1.02119
1.04627
1.01974
1.03774
1.02322
1.04109
1.01739
1.04671
1.03105
1.04575
1.03383
1.04155
1.02858
1.04485
1.03553
1.05023
1.0417
1.05093
1.04389
1.04857
1.05292
1.0478
1.06702
1.05396
1.08069
1.05062
1.08229
1.04422
1.08611
1.04436
1.08621
1.01792
1.11075
0.980427
1.15599
0.961828
1.17205
0.945504
1.52526
1.02629
1.07482
1.02869
1.07216
1.0611
0.979786
1.04404
1.0125
1.03216
1.01129
1.0423
1.0249
1.04718
1.02853
1.0513
1.02831
1.04047
1.0215
1.02958
1.02724
1.03132
1.02075
1.02723
1.02632
1.03674
1.02558
1.03761
1.02965
1.04561
1.03259
1.04674
1.03422
1.05391
1.0367
1.05423
1.04003
1.06395
1.05244
1.06683
1.06994
1.06707
1.08038
1.05198
1.08472
1.0446
1.08338
1.04043
1.09435
1.02773
1.12191
0.982729
1.1551
0.970511
1.16917
0.945081
1.52143
1.08806
1.03949
1.0862
1.00743
1.05699
1.02393
1.04248
1.03592
1.02872
1.02699
1.02431
1.02247
1.01862
1.02808
1.02188
1.03237
1.02471
1.04286
1.02378
1.04245
1.01945
1.03718
1.02095
1.04292
1.01358
1.04327
1.032
1.04207
1.0298
1.03798
1.02487
1.04611
1.03047
1.05179
1.03797
1.05279
1.04999
1.04735
1.05232
1.05141
1.06905
1.0583
1.07857
1.05533
1.08308
1.04994
1.07983
1.04063
1.08898
1.01641
1.1165
0.979346
1.15873
0.96345
1.173
0.950099
1.51795
1.03268
1.07277
1.02854
1.0671
1.05164
0.97087
1.0362
1.0016
1.03071
1.00184
1.03534
1.01467
1.03817
1.02067
1.04073
1.02645
1.04805
1.02785
1.04105
1.02623
1.03258
1.02846
1.0303
1.01928
1.03307
1.02698
1.04594
1.02635
1.04091
1.03402
1.04257
1.03272
1.05042
1.03261
1.05429
1.03551
1.0569
1.04091
1.06343
1.0543
1.0692
1.06673
1.07077
1.07762
1.06005
1.08168
1.04663
1.08807
1.04387
1.09586
1.02745
1.12543
0.989386
1.15434
0.964688
1.17282
0.950874
1.51416
1.08153
1.03531
1.08262
1.02244
1.05286
1.03789
1.0509
1.03793
1.03299
1.02914
1.03488
1.01749
1.02389
1.02009
1.02272
1.02702
1.02223
1.03426
1.02174
1.04314
1.02792
1.03889
1.01944
1.03056
1.0181
1.04259
1.01868
1.03847
1.0366
1.0429
1.02924
1.03687
1.02526
1.04866
1.03351
1.05292
1.03426
1.05118
1.04842
1.04829
1.05335
1.05399
1.06849
1.05411
1.07858
1.0554
1.0882
1.04954
1.08054
1.0406
1.09083
1.023
1.11944
0.989752
1.16067
0.97484
1.17492
0.956
1.51045
1.03559
1.0711
1.02366
1.06259
1.04152
0.97214
1.0323
0.997793
1.02983
0.998552
1.02408
1.00579
1.03252
1.01922
1.03048
1.02358
1.03834
1.02711
1.04825
1.032
1.03978
1.03113
1.03302
1.0304
1.02642
1.02224
1.0344
1.02519
1.04394
1.02632
1.03819
1.03078
1.04468
1.03051
1.05284
1.0313
1.05517
1.03914
1.05409
1.04109
1.06344
1.05297
1.06908
1.06414
1.07139
1.07529
1.06062
1.0804
1.04984
1.09319
1.04558
1.10284
1.02514
1.12616
0.997108
1.15347
0.972777
1.17437
0.95529
1.50669
1.07683
1.03266
1.0863
1.03853
1.04859
1.04665
1.04966
1.03533
1.03192
1.02216
1.04351
1.01896
1.03103
1.02732
1.02582
1.02092
1.02261
1.02869
1.02724
1.03358
1.02519
1.04057
1.02529
1.03606
1.01755
1.04184
1.02409
1.04339
1.02316
1.03978
1.03806
1.04193
1.0319
1.03732
1.02657
1.04911
1.03314
1.05436
1.03503
1.05217
1.04387
1.04949
1.05557
1.05294
1.06659
1.05786
1.07711
1.05828
1.08515
1.04702
1.08153
1.03918
1.09453
1.02435
1.12265
0.997078
1.16176
0.983215
1.17627
0.963396
1.50294
1.0334
1.07246
1.02759
1.06189
1.02751
0.982182
1.03269
0.998217
1.03153
1.00204
1.02155
1.0032
1.03222
1.02268
1.02974
1.02079
1.03008
1.02153
1.03835
1.0264
1.0436
1.03535
1.03881
1.0328
1.03016
1.03129
1.02786
1.02428
1.035
1.02665
1.0435
1.02845
1.04012
1.02419
1.04477
1.0289
1.04906
1.0311
1.0551
1.03704
1.0563
1.04232
1.06368
1.05135
1.06966
1.06329
1.0739
1.07516
1.06168
1.08327
1.05105
1.09581
1.04895
1.1065
1.02464
1.12259
1.00412
1.15571
0.983853
1.17539
0.961195
1.49914
1.07415
1.03627
1.08187
1.05525
1.04604
1.05195
1.04333
1.03047
1.02828
1.01369
1.04077
1.02026
1.04127
1.02046
1.02958
1.02768
1.02494
1.02397
1.02271
1.03098
1.02808
1.03686
1.02962
1.03917
1.02717
1.03744
1.01884
1.04241
1.02385
1.04283
1.02632
1.04164
1.04093
1.04255
1.03856
1.04116
1.03267
1.04994
1.03255
1.05086
1.03191
1.05434
1.04563
1.04702
1.05252
1.05518
1.06363
1.05853
1.07697
1.05505
1.08248
1.05112
1.08832
1.0433
1.09349
1.03339
1.12241
1.00465
1.15933
0.982838
1.17788
0.970448
1.49505
1.02942
1.0707
1.02167
1.06316
1.01891
0.999097
1.03315
1.00241
1.03491
1.0059
1.02658
1.00703
1.03116
1.01507
1.04084
1.02488
1.02823
1.02107
1.03135
1.02171
1.03958
1.02908
1.0411
1.03335
1.03665
1.02969
1.02896
1.03118
1.0284
1.02582
1.03433
1.03076
1.04326
1.02823
1.04161
1.02595
1.04545
1.02833
1.05016
1.03475
1.05752
1.03847
1.05712
1.03846
1.06383
1.05189
1.07225
1.06308
1.07408
1.07574
1.06746
1.08358
1.05798
1.09287
1.0521
1.10395
1.02664
1.12291
1.00437
1.15706
0.991032
1.17578
0.966699
1.49098
1.07272
1.03714
1.08472
1.06712
1.04134
1.05281
1.03266
1.02624
1.02271
1.00694
1.03588
1.01595
1.04186
1.02566
1.04239
1.02172
1.03266
1.03083
1.02508
1.02645
1.02432
1.03293
1.02683
1.03586
1.02922
1.03823
1.02872
1.03646
1.02273
1.03708
1.02205
1.0393
1.02704
1.04077
1.03884
1.04242
1.03641
1.04261
1.03337
1.04819
1.03301
1.04997
1.03465
1.05414
1.04734
1.04917
1.05036
1.0584
1.06322
1.06195
1.07671
1.05888
1.08152
1.05462
1.08919
1.05079
1.09295
1.03453
1.1204
1.01283
1.15371
0.991797
1.17797
0.977841
1.48691
1.03157
1.06903
1.02117
1.06361
1.01516
1.01443
1.03145
1.00905
1.03776
1.01274
1.03029
1.01047
1.03092
1.01372
1.02882
1.01881
1.03607
1.02955
1.02789
1.02273
1.02984
1.02205
1.03853
1.02852
1.03706
1.0365
1.03445
1.02981
1.02917
1.02948
1.03233
1.02628
1.03352
1.03696
1.04509
1.02814
1.0447
1.02729
1.04403
1.03008
1.05048
1.03253
1.056
1.03456
1.05693
1.03811
1.06426
1.05233
1.07395
1.06176
1.07544
1.07356
1.06645
1.08537
1.06282
1.09408
1.05748
1.10323
1.03341
1.12039
1.01265
1.15422
0.997436
1.177
0.973323
1.48277
1.07143
1.03983
1.08852
1.06935
1.03436
1.05584
1.02055
1.0241
1.01908
1.00235
1.02958
1.00743
1.04183
1.0179
1.03668
1.021
1.03627
1.02983
1.0309
1.0273
1.02373
1.02855
1.02672
1.03104
1.03082
1.03592
1.03021
1.03714
1.02795
1.03299
1.02266
1.0327
1.02152
1.0371
1.02724
1.03939
1.03653
1.04466
1.03491
1.04286
1.03484
1.04692
1.03698
1.04928
1.0376
1.05677
1.04379
1.05511
1.05359
1.05944
1.06263
1.06222
1.07472
1.05741
1.08124
1.05736
1.08684
1.0572
1.09412
1.04446
1.11675
1.02098
1.15293
0.997566
1.18058
0.986297
1.47857
1.02978
1.06129
1.02842
1.05911
1.01934
1.0261
1.02742
1.01775
1.03896
1.01793
1.03116
1.01509
1.03336
1.01036
1.0249
1.02353
1.02929
1.02457
1.03146
1.0254
1.03098
1.02251
1.02898
1.02492
1.03529
1.02985
1.03569
1.03399
1.03557
1.031
1.02955
1.02725
1.03114
1.02847
1.03456
1.03614
1.04141
1.027
1.04657
1.02686
1.04383
1.02888
1.04855
1.03307
1.05349
1.03398
1.05468
1.039
1.05802
1.05091
1.07037
1.06043
1.07734
1.07196
1.06602
1.0861
1.06412
1.09193
1.06179
1.10385
1.04027
1.11454
1.0298
1.15239
1.00263
1.1793
0.98183
1.47417
1.06732
1.03625
1.08524
1.06368
1.02818
1.05733
1.01183
1.02759
1.01824
1.0005
1.02092
1.00474
1.03222
1.0095
1.03595
1.02037
1.03205
1.02638
1.03022
1.02952
1.03364
1.02867
1.02606
1.02823
1.0258
1.03125
1.0327
1.03368
1.03046
1.03507
1.02803
1.03066
1.02589
1.03051
1.01865
1.03704
1.02887
1.03816
1.03737
1.04583
1.03107
1.04114
1.03488
1.0468
1.03786
1.04987
1.03842
1.05442
1.0436
1.05583
1.0549
1.05834
1.06185
1.06243
1.07263
1.06071
1.08272
1.05769
1.08859
1.06066
1.0936
1.05141
1.11504
1.02746
1.15202
1.00134
1.17979
0.993333
1.46982
1.03028
1.0592
1.03397
1.05139
1.03079
1.0352
1.0247
1.02306
1.03536
1.01976
1.0315
1.01778
1.03293
1.00707
1.03284
1.00822
1.02583
1.01782
1.03013
1.02853
1.03007
1.02564
1.02551
1.02358
1.02718
1.03052
1.03361
1.02954
1.03394
1.03201
1.03446
1.02945
1.03028
1.0285
1.02766
1.02992
1.03289
1.03554
1.04325
1.02595
1.04616
1.02984
1.04486
1.02988
1.04642
1.03364
1.05309
1.03616
1.05409
1.03852
1.06171
1.04961
1.07334
1.0596
1.07874
1.07095
1.06735
1.08514
1.06524
1.0917
1.06438
1.1033
1.05092
1.11319
1.03238
1.14834
1.01221
1.18011
0.990975
1.46517
1.06388
1.03615
1.08195
1.05284
1.02792
1.05478
1.00792
1.03033
1.01896
1.00091
1.01887
1.00256
1.01986
1.00465
1.02857
1.01057
1.03415
1.02179
1.0315
1.02834
1.02965
1.02963
1.03203
1.02784
1.02711
1.0311
1.02704
1.03345
1.03005
1.03214
1.03034
1.03413
1.0283
1.03005
1.02319
1.03095
1.02159
1.03684
1.0289
1.03881
1.03436
1.04677
1.03246
1.04131
1.03645
1.04381
1.03337
1.05033
1.03854
1.05526
1.04372
1.05358
1.05132
1.05666
1.05954
1.06484
1.07186
1.0648
1.08099
1.06067
1.08776
1.06627
1.09409
1.05754
1.11192
1.03137
1.15054
1.01132
1.17904
0.998244
1.46059
1.03097
1.0523
1.03545
1.04822
1.04479
1.03905
1.0246
1.02794
1.03271
1.02099
1.03041
1.01907
1.03762
1.01442
1.03732
1.00925
1.03325
1.00847
1.03075
1.02111
1.02877
1.02871
1.02898
1.02637
1.02679
1.02277
1.02828
1.0318
1.03087
1.03011
1.03188
1.03063
1.03417
1.03077
1.02949
1.02701
1.02859
1.03059
1.0327
1.03314
1.04192
1.02879
1.04367
1.03113
1.04318
1.03056
1.04667
1.03851
1.05012
1.03592
1.05265
1.03974
1.06096
1.04969
1.07223
1.05927
1.078
1.07007
1.06797
1.08439
1.07088
1.08988
1.06538
1.10213
1.05328
1.11699
1.0397
1.14507
1.02385
1.18053
1.00083
1.45547
1.06163
1.03233
1.07814
1.04333
1.03045
1.0475
1.00611
1.03206
1.0198
1.00172
1.01621
1.009
1.01626
1.00491
1.02175
1.00585
1.03098
1.01328
1.03158
1.02434
1.0264
1.02668
1.03053
1.02821
1.02975
1.02727
1.02777
1.0297
1.02869
1.0329
1.03021
1.03003
1.02936
1.03319
1.02806
1.02815
1.02188
1.02894
1.02177
1.03761
1.0296
1.03823
1.0351
1.04466
1.03288
1.0402
1.03522
1.04499
1.03595
1.04967
1.03912
1.0529
1.04098
1.0516
1.05148
1.06213
1.05917
1.06512
1.07119
1.06465
1.08044
1.06613
1.08796
1.07119
1.09292
1.06312
1.11172
1.03956
1.15229
1.01895
1.18034
1.00567
1.4508
1.03864
1.05395
1.03336
1.05255
1.05624
1.03651
1.02635
1.03003
1.02878
1.02221
1.0324
1.0211
1.03703
1.01924
1.03852
1.01775
1.03452
1.00885
1.03337
1.01308
1.02426
1.02442
1.02988
1.02811
1.02597
1.02776
1.026
1.02433
1.02749
1.03076
1.03052
1.02985
1.03151
1.02868
1.03206
1.031
1.02967
1.02693
1.02646
1.03046
1.03322
1.03236
1.04106
1.03078
1.04334
1.03106
1.04179
1.02807
1.04474
1.03844
1.04847
1.03682
1.05102
1.04079
1.05898
1.04793
1.07456
1.05608
1.0746
1.06673
1.0693
1.0839
1.07745
1.09266
1.07298
1.10089
1.06519
1.11822
1.04242
1.14615
1.02637
1.18045
1.00947
1.44546
1.05211
1.03428
1.07551
1.037
1.03714
1.0438
1.0097
1.03367
1.02109
1.00797
1.01178
1.01777
1.01393
1.01041
1.01836
1.0108
1.01991
1.00747
1.02676
1.01475
1.03141
1.0193
1.02763
1.02522
1.02919
1.0271
1.02704
1.02437
1.02724
1.02738
1.02949
1.0309
1.02901
1.03112
1.02966
1.03248
1.02921
1.02724
1.02137
1.0323
1.0241
1.03618
1.02909
1.03731
1.03634
1.0413
1.036
1.03909
1.03494
1.0445
1.0365
1.04817
1.03697
1.05113
1.04164
1.05147
1.04946
1.06367
1.05953
1.06736
1.07092
1.06472
1.07982
1.06881
1.08814
1.07512
1.09218
1.07017
1.11508
1.04621
1.15148
1.02615
1.1802
1.01536
1.4401
1.03774
1.04465
1.0334
1.05886
1.06163
1.02859
1.0305
1.03022
1.02637
1.02095
1.03352
1.02125
1.038
1.01815
1.0361
1.01503
1.0276
1.0142
1.03405
1.01321
1.0273
1.01362
1.03164
1.02334
1.02856
1.02743
1.02606
1.02568
1.02538
1.02657
1.0261
1.03027
1.03082
1.03089
1.0323
1.02956
1.03125
1.02919
1.0277
1.03004
1.02944
1.0296
1.03174
1.03205
1.04031
1.03428
1.04267
1.03326
1.04134
1.0281
1.04444
1.03709
1.04872
1.03428
1.0501
1.03713
1.05416
1.04556
1.07665
1.05503
1.07142
1.06581
1.07303
1.08182
1.07703
1.09385
1.07825
1.10114
1.06604
1.11536
1.04892
1.14806
1.03739
1.17726
1.01586
1.43419
1.03699
1.02878
1.07298
1.03984
1.04516
1.03856
1.01742
1.03189
1.02239
1.01107
1.01131
1.02122
1.01966
1.01288
1.01888
1.01116
1.02377
1.01647
1.01848
1.00992
1.02666
1.01723
1.03048
1.02003
1.02743
1.0235
1.02784
1.02501
1.02631
1.02531
1.02757
1.02663
1.0268
1.0301
1.02811
1.03205
1.02916
1.03076
1.02877
1.02837
1.02075
1.02954
1.02603
1.03585
1.02956
1.03811
1.03722
1.04053
1.03691
1.03884
1.03554
1.04329
1.03624
1.04948
1.03801
1.05154
1.0422
1.05503
1.05107
1.06398
1.05857
1.07078
1.06908
1.07014
1.08026
1.07007
1.0896
1.08155
1.09046
1.07292
1.11474
1.05111
1.14888
1.03499
1.17811
1.02609
1.42852
1.0341
1.04383
1.02538
1.05912
1.05995
1.02055
1.03386
1.0296
1.02179
1.0183
1.03442
1.02189
1.0338
1.0219
1.03416
1.0171
1.03119
1.01199
1.02324
1.0138
1.03051
1.01238
1.02399
1.0154
1.02829
1.02335
1.02658
1.02527
1.0245
1.02589
1.02348
1.02647
1.02461
1.03083
1.03056
1.03107
1.03186
1.02918
1.03077
1.02841
1.02535
1.02818
1.02714
1.03025
1.03156
1.0326
1.03794
1.03463
1.04153
1.03344
1.0395
1.02827
1.04313
1.03398
1.04905
1.03465
1.04984
1.03589
1.05755
1.04574
1.07729
1.05922
1.07067
1.06464
1.07181
1.08216
1.08035
1.0937
1.08301
1.09986
1.07254
1.11309
1.06275
1.14651
1.0453
1.17779
1.02342
1.42231
1.03557
1.02796
1.08819
1.04691
1.0502
1.0345
1.02629
1.02898
1.02456
1.01601
1.01148
1.01969
1.0225
1.02023
1.01979
1.01362
1.02271
1.0167
1.02198
1.02064
1.02176
1.01415
1.02645
1.01848
1.03004
1.02196
1.0256
1.02324
1.02745
1.02572
1.0264
1.02464
1.02545
1.02684
1.02755
1.02931
1.02812
1.03245
1.02927
1.02851
1.02578
1.0283
1.022
1.03169
1.0248
1.03511
1.02996
1.03723
1.03736
1.04054
1.03803
1.03782
1.03443
1.04125
1.03477
1.0456
1.03582
1.04889
1.03993
1.0516
1.04944
1.06404
1.05739
1.06751
1.06807
1.07234
1.07833
1.07333
1.09093
1.08475
1.09086
1.0819
1.10909
1.06306
1.1458
1.0445
1.17883
1.03522
1.41604
1.02617
1.03259
1.02606
1.05876
1.05625
1.01423
1.03938
1.02715
1.02005
1.01506
1.02987
1.02126
1.02975
1.02132
1.03101
1.02214
1.03158
1.01297
1.02372
1.01446
1.02509
1.01447
1.02621
1.01262
1.02005
1.0155
1.02203
1.02324
1.02571
1.02521
1.02291
1.02565
1.02428
1.02505
1.02426
1.02878
1.03158
1.03127
1.03191
1.0287
1.02963
1.02765
1.02721
1.02848
1.02575
1.02938
1.03153
1.0323
1.03853
1.03536
1.04114
1.03385
1.03789
1.02922
1.04321
1.03509
1.0474
1.03272
1.04682
1.03616
1.06346
1.04775
1.07615
1.05998
1.07017
1.06223
1.07381
1.08155
1.0834
1.09384
1.0875
1.09894
1.0792
1.11301
1.07378
1.14363
1.06003
1.17798
1.03377
1.40925
1.02943
1.02975
1.10019
1.05428
1.0522
1.03146
1.03367
1.02566
1.02676
1.0189
1.01096
1.02116
1.01978
1.0217
1.02183
1.01966
1.01898
1.01622
1.02226
1.02096
1.0219
1.02091
1.02194
1.01647
1.02343
1.01766
1.02841
1.01894
1.02449
1.02532
1.02602
1.02573
1.02546
1.02329
1.02451
1.02684
1.02853
1.02975
1.02655
1.03169
1.02916
1.02914
1.02517
1.02581
1.02181
1.03042
1.02776
1.0334
1.03181
1.03694
1.03842
1.03906
1.03699
1.03645
1.03423
1.0419
1.03543
1.04657
1.03461
1.04457
1.0376
1.04926
1.04684
1.06477
1.0572
1.06597
1.06644
1.07284
1.07801
1.07925
1.09056
1.09129
1.09176
1.08991
1.10615
1.07312
1.14281
1.0567
1.18016
1.04216
1.40261
1.02098
1.02962
1.02529
1.05778
1.0532
1.01127
1.04296
1.02405
1.02035
1.01066
1.02475
1.02103
1.02229
1.02484
1.03098
1.02047
1.03054
1.02026
1.02934
1.01683
1.02545
1.01661
1.02098
1.01397
1.02406
1.0141
1.0217
1.01525
1.0266
1.02325
1.02404
1.02487
1.02389
1.0254
1.02448
1.02481
1.02438
1.02721
1.0317
1.03068
1.03173
1.02711
1.03049
1.02642
1.02801
1.02666
1.02711
1.02998
1.03016
1.03297
1.03698
1.03448
1.03954
1.03391
1.0366
1.02797
1.04257
1.03227
1.04618
1.03419
1.04887
1.03583
1.06551
1.04947
1.07557
1.05861
1.06736
1.05999
1.07723
1.08128
1.08825
1.09437
1.08999
1.09959
1.08514
1.11002
1.08304
1.1411
1.06686
1.17638
1.04355
1.39527
1.03323
1.0172
1.11327
1.06172
1.05074
1.02964
1.03784
1.02336
1.02658
1.02104
1.0123
1.02164
1.01699
1.02378
1.01933
1.02327
1.02041
1.02287
1.02036
1.02113
1.0223
1.02309
1.02156
1.01894
1.01924
1.01687
1.02104
1.01907
1.02775
1.02199
1.02451
1.02122
1.02569
1.0235
1.02547
1.02309
1.02425
1.02598
1.02778
1.02996
1.026
1.03143
1.02978
1.02902
1.02451
1.02718
1.02377
1.02828
1.02619
1.03417
1.03189
1.03644
1.03836
1.03813
1.03702
1.03567
1.03429
1.04227
1.03527
1.04568
1.03253
1.04811
1.0409
1.04822
1.04643
1.0658
1.05691
1.06597
1.06384
1.07459
1.07853
1.08353
1.09084
1.09356
1.0933
1.09564
1.10452
1.08497
1.13883
1.06194
1.17719
1.05121
1.38813
1.01492
1.04578
1.02943
1.05687
1.04981
1.01069
1.04692
1.02159
1.02316
1.00999
1.02145
1.01867
1.01932
1.02155
1.02553
1.02412
1.02857
1.02055
1.02569
1.02182
1.0245
1.01769
1.02349
1.01803
1.02416
1.0139
1.02202
1.01617
1.01553
1.01718
1.02413
1.02353
1.02908
1.02399
1.02484
1.02457
1.02315
1.02393
1.0235
1.02687
1.02806
1.02913
1.03152
1.02656
1.03029
1.02483
1.02457
1.02521
1.02462
1.0304
1.03147
1.03203
1.03577
1.03637
1.03814
1.03162
1.03596
1.02904
1.04269
1.03228
1.04462
1.03511
1.04629
1.03268
1.06666
1.05046
1.06623
1.06005
1.06759
1.06116
1.0791
1.08131
1.08934
1.09326
1.09123
1.10025
1.08481
1.10695
1.0896
1.13779
1.06913
1.17611
1.05241
1.38046
1.02776
1.01581
1.11849
1.06814
1.0473
1.02773
1.04016
1.02006
1.02567
1.02158
1.01214
1.02131
1.01932
1.02071
1.021
1.02427
1.02098
1.02037
1.02642
1.02403
1.02239
1.02325
1.02435
1.02103
1.01889
1.01807
1.0212
1.02185
1.02283
1.02153
1.02378
1.0232
1.02431
1.02289
1.02571
1.02215
1.02473
1.02296
1.02344
1.02712
1.0271
1.0286
1.02668
1.03055
1.0287
1.02942
1.02361
1.02816
1.02347
1.02871
1.02556
1.03459
1.03331
1.037
1.03865
1.0364
1.03594
1.03288
1.03671
1.04217
1.03245
1.04484
1.03461
1.04803
1.04296
1.04816
1.04869
1.06702
1.05481
1.0651
1.05938
1.07586
1.07821
1.08483
1.08976
1.09713
1.09364
1.10213
1.10228
1.09197
1.13474