/*--------------------------------*- C++ -*----------------------------------*\
| =========                 |                                                 |
| \\      /  F ield         | OpenFOAM: The Open Source CFD Toolbox           |
|  \\    /   O peration     | Version:  2206                                  |
|   \\  /    A nd           | Website:  www.openfoam.com                      |
|    \\/     M anipulation  |                                                 |
\*---------------------------------------------------------------------------*/
FoamFile
{
    version     2.0;
    format      ascii;
    arch        "LSB;label=32;scalar=64";
    class       volScalarField;
    location    "170";
    object      pMean;
}
// * * * * * * * * * * * * * * * * * * * * * * * * * * * * * * * * * * * * * //

dimensions      [1 -1 -2 0 0 0 0];

internalField   nonuniform List<scalar> 
93840
(
2.07002
0.658486
1.96947
1.38884
0.696484
1.79896
0.699074
1.22083
0.748941
1.61113
1.15173
0.919117
1.20087
0.839128
1.45299
0.979382
1.13966
0.918226
1.22753
0.881089
1.3205
1.09659
0.925887
1.15738
0.882487
1.17593
0.951961
1.25237
0.977102
1.13026
0.922703
1.13996
0.918467
1.13725
0.979032
1.1885
1.0959
0.930167
1.14268
0.98412
1.14399
0.968952
1.12061
0.996021
1.18656
0.973998
1.10798
0.936824
1.10425
0.944053
1.11891
0.975608
1.10605
0.98303
1.1286
1.09529
0.959613
1.12463
0.991889
1.12463
0.989396
1.10687
1.00187
1.0912
1.00429
1.16188
0.974397
1.09899
0.952051
1.08667
0.963521
1.10153
0.992455
1.08503
0.999691
1.07973
0.998063
1.12835
1.09374
0.960148
1.10974
1.00763
1.10309
1.00625
1.0892
1.02402
1.0709
1.01832
1.07285
1.00594
1.14498
0.976071
1.09687
0.959952
1.07491
0.976314
1.0871
1.00656
1.07481
1.01627
1.06926
1.00387
1.08095
1.00153
1.11108
1.09288
0.96221
1.09885
1.01118
1.09001
1.01882
1.07926
1.03074
1.06812
1.03073
1.05936
1.01362
1.07042
1.00888
1.13419
0.977356
1.0945
0.966097
1.06742
0.986272
1.07617
1.01662
1.06303
1.01967
1.06477
1.01583
1.06669
1.00706
1.07504
1.00447
1.09753
1.09157
0.964643
1.08947
1.01484
1.08008
1.02883
1.07209
1.03663
1.06677
1.03365
1.05971
1.02938
1.05716
1.01403
1.07019
1.01168
1.1223
0.979653
1.09215
0.971418
1.06058
0.994305
1.06698
1.02359
1.05708
1.02199
1.05651
1.02032
1.05853
1.0177
1.06269
1.00899
1.0713
1.00702
1.08537
1.08931
0.968474
1.0802
1.01914
1.07054
1.03495
1.06737
1.03963
1.06505
1.03799
1.06153
1.03754
1.05496
1.02875
1.05719
1.01582
1.06824
1.0139
1.11229
0.980854
1.08934
0.977675
1.05366
1.00163
1.05884
1.0286
1.05333
1.02628
1.05205
1.02397
1.05255
1.02274
1.05535
1.01862
1.05887
1.01144
1.06765
1.00906
1.07633
1.08845
0.973088
1.07156
1.02319
1.06187
1.0384
1.06289
1.04262
1.06237
1.04078
1.06171
1.03951
1.0577
1.03858
1.05205
1.02944
1.05444
1.01778
1.06564
1.01602
1.10264
0.981487
1.08573
0.983086
1.04735
1.00709
1.05215
1.03299
1.04996
1.03054
1.04908
1.02795
1.04861
1.02631
1.04888
1.02439
1.0524
1.02166
1.05441
1.01419
1.0638
1.01116
1.07014
1.08874
0.977572
1.06394
1.02522
1.05506
1.04095
1.05823
1.04465
1.05955
1.04376
1.06022
1.04135
1.05865
1.03999
1.05533
1.03595
1.04823
1.03064
1.0542
1.02004
1.06279
1.0186
1.09196
0.983412
1.08201
0.987232
1.04226
1.01149
1.04646
1.03613
1.0469
1.03488
1.04685
1.03129
1.04621
1.02893
1.04596
1.02826
1.04693
1.02915
1.04902
1.02474
1.05104
1.01562
1.05995
1.0132
1.06566
1.08857
0.981948
1.05809
1.02712
1.04951
1.04387
1.0539
1.04601
1.0562
1.04557
1.05693
1.04354
1.0572
1.04181
1.05671
1.03682
1.05339
1.03601
1.0458
1.03258
1.05183
1.02196
1.06025
1.0167
1.05721
0.986157
1.07896
0.990362
1.03734
1.01518
1.04088
1.03766
1.0435
1.03743
1.04463
1.0353
1.04517
1.03181
1.04458
1.03052
1.04375
1.02993
1.0443
1.03253
1.04547
1.02742
1.04878
1.01624
1.05603
1.00591
1.04117
1.08774
0.986713
1.05264
1.03064
1.04449
1.04632
1.04992
1.04777
1.05314
1.04655
1.0544
1.04507
1.05503
1.04394
1.05534
1.04149
1.05556
1.03894
1.04985
1.03619
1.04384
1.03379
1.05011
1.02287
1.05581
1.03227
1.05529
0.989149
1.07526
0.993874
1.03166
1.01895
1.03582
1.03858
1.04036
1.03782
1.04203
1.0376
1.04323
1.03594
1.04425
1.03207
1.04275
1.03152
1.04266
1.03088
1.04237
1.03533
1.04209
1.02783
1.04721
1.01754
1.04697
1.02408
1.04964
1.08658
0.991982
1.04779
1.03264
1.04015
1.04727
1.04625
1.04794
1.05004
1.04732
1.05255
1.04584
1.05289
1.04398
1.05166
1.04412
1.05383
1.04085
1.05305
1.0403
1.04695
1.03731
1.04306
1.03265
1.04855
1.02395
1.0499
1.02646
1.05777
0.991833
1.0715
0.998155
1.02714
1.02281
1.03168
1.03936
1.03784
1.03854
1.04053
1.03782
1.04173
1.0378
1.04214
1.03639
1.04145
1.03282
1.04136
1.03292
1.04142
1.03226
1.04107
1.03474
1.04188
1.02779
1.04582
1.01995
1.04856
1.01981
1.04749
1.08553
0.996017
1.04271
1.03543
1.03586
1.04725
1.043
1.04631
1.04675
1.04611
1.05006
1.04587
1.05098
1.04456
1.05091
1.04406
1.05197
1.04339
1.05161
1.03867
1.05058
1.04021
1.04482
1.03641
1.0427
1.03155
1.04627
1.02492
1.04995
1.02206
1.0539
0.994777
1.0684
1.00214
1.02333
1.02534
1.02831
1.039
1.03528
1.03824
1.0398
1.03784
1.04061
1.0376
1.04114
1.03789
1.04165
1.03597
1.04081
1.03385
1.04014
1.03424
1.04006
1.03381
1.04095
1.03353
1.041
1.02944
1.04359
1.02035
1.04853
1.01799
1.04334
1.08417
1.00051
1.03827
1.03653
1.03301
1.04764
1.04069
1.04429
1.04498
1.04412
1.04699
1.04281
1.04915
1.04497
1.04934
1.04361
1.04997
1.04377
1.05028
1.04293
1.05058
1.04099
1.04894
1.03845
1.04388
1.03613
1.04176
1.03135
1.04405
1.02425
1.04876
1.0221
1.04816
0.998023
1.06469
1.0048
1.02105
1.02603
1.02512
1.03773
1.03297
1.03734
1.03831
1.03676
1.0407
1.03692
1.04066
1.03718
1.04063
1.03791
1.04137
1.03577
1.04096
1.03444
1.03972
1.03429
1.03925
1.03342
1.04054
1.03302
1.04007
1.02937
1.04233
1.02026
1.04588
1.01855
1.03794
1.08236
1.00531
1.03492
1.03702
1.0311
1.04792
1.0389
1.04249
1.04403
1.04128
1.04599
1.04221
1.04706
1.04284
1.04575
1.04362
1.0483
1.04265
1.0484
1.04338
1.0487
1.04255
1.04835
1.04037
1.04792
1.03811
1.04332
1.03574
1.04061
1.03067
1.04298
1.02479
1.04579
1.02303
1.0426
1.00111
1.06089
1.00721
1.01938
1.02654
1.02225
1.03615
1.03109
1.03555
1.03665
1.03518
1.03953
1.0355
1.04061
1.03788
1.0405
1.03791
1.03984
1.03766
1.04104
1.03573
1.04069
1.03458
1.03986
1.03475
1.03856
1.03326
1.03947
1.03278
1.03907
1.02874
1.04128
1.02144
1.04288
1.02005
1.03268
1.08032
1.00992
1.03208
1.03782
1.02919
1.04731
1.0372
1.04078
1.04338
1.03926
1.04539
1.0396
1.04492
1.04077
1.04673
1.04089
1.04736
1.04188
1.04728
1.04206
1.04668
1.04114
1.04733
1.0407
1.04727
1.03956
1.04655
1.03719
1.04253
1.03577
1.03985
1.03027
1.0423
1.02511
1.04294
1.02407
1.03742
1.00393
1.05786
1.00965
1.01768
1.02746
1.01998
1.03464
1.02996
1.03361
1.03523
1.03393
1.03744
1.03466
1.0406
1.03528
1.04036
1.0374
1.0405
1.03844
1.03906
1.03767
1.0409
1.03667
1.0401
1.03623
1.03956
1.03517
1.03798
1.03482
1.03843
1.03242
1.03829
1.02811
1.04031
1.02196
1.04033
1.02139
1.02775
1.07822
1.01324
1.03017
1.03874
1.0273
1.0458
1.03577
1.03883
1.04298
1.03795
1.04456
1.03774
1.04566
1.0387
1.04486
1.03957
1.04665
1.04005
1.04623
1.03915
1.04745
1.04157
1.04687
1.04035
1.04645
1.04011
1.04573
1.03941
1.04507
1.03718
1.04099
1.03533
1.03904
1.02946
1.04145
1.02542
1.04069
1.02465
1.03209
1.00638
1.05535
1.01191
1.01616
1.02856
1.01811
1.03319
1.0289
1.03173
1.03456
1.03252
1.03718
1.03318
1.03821
1.03393
1.04049
1.03544
1.04041
1.03696
1.04068
1.03743
1.03909
1.03696
1.04025
1.03733
1.04028
1.03612
1.03923
1.03528
1.03815
1.03471
1.03843
1.03184
1.03797
1.02815
1.03959
1.02246
1.03825
1.02234
1.02272
1.07615
1.01631
1.02915
1.03942
1.0253
1.0438
1.03462
1.03683
1.04209
1.0359
1.0438
1.03533
1.04433
1.03644
1.04419
1.0376
1.04522
1.03861
1.04525
1.03855
1.04593
1.03944
1.04662
1.04114
1.04618
1.04006
1.04551
1.03986
1.04524
1.03895
1.04394
1.03691
1.04006
1.03434
1.03833
1.02905
1.0405
1.02536
1.0389
1.02551
1.02725
1.00857
1.05288
1.01441
1.01497
1.02944
1.01656
1.03175
1.02789
1.02993
1.03388
1.03063
1.03628
1.0333
1.03756
1.03262
1.03872
1.03408
1.04052
1.03529
1.04122
1.0366
1.04062
1.03728
1.03941
1.03677
1.03996
1.03703
1.04019
1.0359
1.03903
1.03502
1.03788
1.03438
1.03793
1.03184
1.03741
1.0279
1.03878
1.02241
1.03684
1.02302
1.01765
1.07413
1.01935
1.02829
1.03958
1.02341
1.04168
1.03374
1.03483
1.04141
1.03365
1.04287
1.03322
1.04331
1.03112
1.04347
1.0362
1.04528
1.0367
1.04474
1.03774
1.04476
1.03826
1.0453
1.03883
1.04544
1.04029
1.04543
1.03955
1.04472
1.03925
1.04432
1.03843
1.04276
1.03664
1.03922
1.03367
1.03777
1.02884
1.03944
1.02516
1.03752
1.02649
1.02361
1.01078
1.05067
1.01692
1.01397
1.03008
1.01551
1.03027
1.027
1.02778
1.03312
1.02853
1.03549
1.03114
1.03719
1.03238
1.03756
1.03259
1.03912
1.03409
1.04043
1.03528
1.04075
1.03645
1.04051
1.03657
1.0398
1.03675
1.03959
1.03661
1.03988
1.03572
1.03865
1.03495
1.03698
1.03414
1.03722
1.03171
1.037
1.0276
1.03776
1.02213
1.03552
1.02399
1.01455
1.07219
1.02225
1.02755
1.03923
1.02193
1.03951
1.03291
1.03293
1.04093
1.0311
1.04178
1.03187
1.04253
1.03134
1.04415
1.03396
1.04404
1.03519
1.0443
1.03581
1.04421
1.03604
1.04446
1.03717
1.04463
1.03825
1.04462
1.0389
1.04482
1.0387
1.044
1.03842
1.04345
1.03815
1.04171
1.03639
1.03861
1.03311
1.03715
1.02852
1.03846
1.02483
1.03618
1.02581
1.02038
1.01296
1.04855
1.01877
1.01325
1.03046
1.01455
1.02881
1.02639
1.02576
1.03219
1.02673
1.03468
1.02814
1.03636
1.03098
1.0371
1.03135
1.03862
1.03275
1.03933
1.03408
1.04062
1.03513
1.0409
1.03608
1.04036
1.03554
1.03984
1.03681
1.03941
1.03662
1.03937
1.03586
1.03795
1.03493
1.03681
1.03362
1.03666
1.03133
1.03634
1.02755
1.03668
1.02208
1.03436
1.0235
1.01102
1.07036
1.02514
1.02762
1.03882
1.021
1.03743
1.03231
1.03125
1.04052
1.02836
1.04141
1.02963
1.04169
1.03105
1.04286
1.03098
1.04162
1.03315
1.04337
1.03471
1.04444
1.0353
1.0442
1.03603
1.04399
1.0369
1.04423
1.03839
1.04452
1.03744
1.04438
1.03804
1.043
1.03794
1.04254
1.03736
1.0409
1.03555
1.03791
1.03249
1.03644
1.02862
1.03731
1.02462
1.0348
1.02513
1.01659
1.01515
1.0465
1.02041
1.01259
1.03032
1.01365
1.02755
1.0258
1.0239
1.03166
1.02647
1.03394
1.02697
1.03594
1.0277
1.03663
1.03101
1.03897
1.03164
1.03939
1.03235
1.03933
1.03396
1.04062
1.03475
1.04019
1.0359
1.03945
1.03554
1.0397
1.03577
1.03929
1.03647
1.03905
1.03575
1.03786
1.03464
1.03633
1.0337
1.03602
1.03112
1.03563
1.02736
1.03562
1.0219
1.03307
1.02311
1.00698
1.06848
1.02784
1.02782
1.03839
1.02051
1.03551
1.03195
1.02974
1.03974
1.02685
1.04019
1.0263
1.04051
1.0279
1.04141
1.03044
1.04279
1.03082
1.0436
1.03278
1.04243
1.0336
1.04403
1.03506
1.04329
1.03611
1.0438
1.03639
1.04369
1.03785
1.04411
1.03849
1.04366
1.03769
1.04258
1.03748
1.04186
1.03687
1.04028
1.03506
1.03725
1.03217
1.03554
1.02802
1.03614
1.02414
1.03358
1.02456
1.01257
1.01731
1.04502
1.02189
1.0122
1.02978
1.01293
1.02642
1.02509
1.02236
1.03149
1.02476
1.03374
1.02616
1.0353
1.02685
1.03588
1.02832
1.03684
1.03003
1.03894
1.03151
1.03999
1.03224
1.03946
1.03386
1.0403
1.03417
1.04034
1.03567
1.0396
1.03511
1.03933
1.03555
1.03894
1.03622
1.03863
1.0353
1.03734
1.03453
1.03569
1.03334
1.0354
1.03105
1.03463
1.02769
1.03457
1.02192
1.03197
1.02274
1.00311
1.06657
1.03002
1.02837
1.03812
1.02032
1.03386
1.03174
1.02823
1.03917
1.02543
1.04042
1.02518
1.04062
1.0264
1.04058
1.02755
1.04123
1.0299
1.0429
1.03118
1.043
1.03275
1.04243
1.03395
1.04343
1.03473
1.04396
1.03602
1.04344
1.03604
1.04334
1.03757
1.04368
1.03799
1.04295
1.03724
1.04195
1.037
1.04107
1.03598
1.03963
1.03479
1.03649
1.03201
1.03481
1.02796
1.035
1.02372
1.0324
1.02404
1.00912
1.0192
1.04391
1.02303
1.01178
1.02884
1.01229
1.02525
1.02436
1.02102
1.03107
1.02258
1.03284
1.02506
1.0337
1.0256
1.03562
1.02627
1.0366
1.02823
1.03709
1.0298
1.03899
1.03151
1.0399
1.03237
1.03965
1.03372
1.03997
1.03394
1.03976
1.03543
1.03939
1.03488
1.03913
1.03518
1.03854
1.03595
1.03803
1.03511
1.03656
1.03431
1.03499
1.03298
1.03472
1.03076
1.03364
1.02744
1.03342
1.02172
1.03082
1.0225
0.999714
1.06483
1.03197
1.02933
1.03789
1.02032
1.03241
1.03148
1.0268
1.03852
1.02388
1.04043
1.02432
1.03994
1.02423
1.03921
1.02591
1.04091
1.02857
1.04097
1.02876
1.04291
1.03155
1.04264
1.03231
1.04266
1.03364
1.04323
1.03421
1.04354
1.03572
1.04314
1.03566
1.04315
1.03702
1.04305
1.0377
1.04219
1.03665
1.04151
1.03633
1.04063
1.03562
1.03853
1.0343
1.03571
1.03166
1.03396
1.02781
1.03375
1.02339
1.03104
1.02357
1.00588
1.021
1.04342
1.02405
1.01119
1.02768
1.01183
1.02411
1.0237
1.01998
1.03077
1.0213
1.03244
1.02306
1.03353
1.02547
1.03511
1.02606
1.03634
1.02626
1.03726
1.02828
1.03736
1.02967
1.0387
1.03173
1.03988
1.03228
1.03945
1.03378
1.03969
1.03401
1.03945
1.03498
1.03901
1.03472
1.03892
1.03487
1.03826
1.03563
1.03762
1.03471
1.03604
1.03413
1.03493
1.03245
1.03382
1.03093
1.03301
1.02711
1.03224
1.02181
1.02965
1.02221
0.996188
1.06312
1.03338
1.02982
1.03665
1.02034
1.03106
1.03108
1.02538
1.03793
1.02254
1.03989
1.02254
1.03842
1.02369
1.03999
1.02437
1.03929
1.02558
1.03936
1.02805
1.04089
1.02919
1.04206
1.03168
1.04222
1.03193
1.04248
1.03337
1.04348
1.03377
1.04303
1.03538
1.04265
1.03536
1.04286
1.03634
1.04178
1.03729
1.04176
1.03623
1.04079
1.03599
1.03978
1.03507
1.03803
1.03403
1.03475
1.03104
1.03319
1.02765
1.03251
1.02331
1.02964
1.0232
1.00253
1.02277
1.0437
1.02463
1.0124
1.02663
1.01171
1.02307
1.02316
1.01917
1.0305
1.02026
1.03112
1.0221
1.03353
1.02345
1.03402
1.02517
1.03556
1.02649
1.03597
1.02641
1.03688
1.02896
1.03792
1.02964
1.03906
1.03094
1.03979
1.03226
1.03933
1.03381
1.03922
1.03385
1.03939
1.03424
1.03875
1.03467
1.03843
1.03445
1.03785
1.03526
1.03711
1.03434
1.03559
1.03376
1.03433
1.03197
1.0334
1.03053
1.03214
1.02696
1.03102
1.02179
1.02835
1.02183
0.993031
1.06149
1.03486
1.03067
1.03609
1.02025
1.02984
1.03052
1.02401
1.03736
1.02121
1.03891
1.02096
1.03882
1.02278
1.03817
1.02306
1.03812
1.02464
1.03888
1.02594
1.03948
1.02843
1.04029
1.02916
1.04048
1.03159
1.04208
1.03264
1.04225
1.03292
1.04288
1.03332
1.04284
1.035
1.04223
1.03525
1.04249
1.03597
1.04158
1.03674
1.04123
1.03567
1.04022
1.03567
1.0393
1.03454
1.03744
1.03335
1.03422
1.03066
1.03237
1.02756
1.03125
1.02301
1.02816
1.02281
0.999626
1.02439
1.04372
1.02536
1.01173
1.02584
1.01171
1.02209
1.02278
1.01855
1.03022
1.01917
1.03217
1.02067
1.03217
1.02203
1.0339
1.02427
1.03473
1.02481
1.03534
1.02654
1.03555
1.02731
1.03732
1.02912
1.03921
1.03015
1.0391
1.03119
1.03983
1.03186
1.03958
1.03366
1.03942
1.03351
1.03931
1.03398
1.03807
1.03451
1.03819
1.03443
1.03747
1.03481
1.03661
1.03397
1.03519
1.03342
1.03389
1.03183
1.0328
1.03008
1.03123
1.02669
1.02983
1.02188
1.02695
1.02134
0.990278
1.05999
1.03621
1.03125
1.03569
1.02023
1.0287
1.02991
1.02276
1.03678
1.01997
1.03872
1.02052
1.03864
1.02156
1.03755
1.02298
1.0377
1.02362
1.03747
1.02545
1.03867
1.02632
1.03952
1.0279
1.03961
1.02965
1.04021
1.03134
1.04188
1.03235
1.04182
1.03329
1.04274
1.03337
1.04256
1.03467
1.04191
1.03476
1.04199
1.0354
1.04135
1.03598
1.04077
1.03543
1.03972
1.03518
1.03853
1.03407
1.03679
1.03223
1.03351
1.03041
1.03148
1.02746
1.03008
1.02267
1.02664
1.02219
0.997104
1.02584
1.04394
1.02582
1.0112
1.02525
1.01177
1.02114
1.02247
1.01793
1.02997
1.01861
1.03089
1.01984
1.03145
1.02196
1.03307
1.02291
1.03433
1.02432
1.03563
1.025
1.03584
1.0265
1.03597
1.02758
1.03825
1.02915
1.03927
1.03026
1.0393
1.03104
1.03962
1.0319
1.03922
1.03331
1.03927
1.03315
1.03913
1.03374
1.03821
1.03422
1.03803
1.03387
1.03713
1.03423
1.03598
1.03365
1.03456
1.03302
1.03339
1.03204
1.03186
1.02962
1.03023
1.02644
1.02868
1.02171
1.02549
1.0208
0.987821
1.05862
1.03742
1.0325
1.03513
1.02024
1.02757
1.02933
1.02162
1.0362
1.01903
1.03842
1.01987
1.03844
1.02011
1.03676
1.02187
1.03637
1.0225
1.03649
1.02403
1.03735
1.02525
1.03833
1.02666
1.03924
1.02833
1.03901
1.02979
1.03979
1.03117
1.04132
1.03247
1.04203
1.03293
1.0426
1.03324
1.04222
1.03431
1.0415
1.0344
1.04146
1.03493
1.04086
1.03564
1.04012
1.03506
1.03922
1.0346
1.03805
1.03357
1.03601
1.03175
1.03282
1.0302
1.03052
1.02725
1.02873
1.02245
1.02515
1.02147
0.994554
1.02723
1.0443
1.02679
1.0106
1.02478
1.01189
1.02025
1.02218
1.01747
1.02974
1.01774
1.03057
1.01946
1.03135
1.02161
1.03299
1.0223
1.03357
1.02387
1.0348
1.02445
1.03567
1.02518
1.03585
1.02624
1.03621
1.02729
1.0382
1.02905
1.03916
1.03034
1.03968
1.03101
1.03947
1.03191
1.03947
1.03296
1.0393
1.03294
1.03893
1.03359
1.0378
1.03381
1.03774
1.03335
1.03686
1.03373
1.03549
1.03327
1.03398
1.03261
1.03297
1.03177
1.03112
1.02915
1.0292
1.02615
1.02747
1.02143
1.02397
1.01994
0.985545
1.05736
1.03849
1.03262
1.0345
1.02033
1.0265
1.02882
1.02057
1.0356
1.01852
1.03717
1.01983
1.03789
1.02025
1.03668
1.02088
1.03461
1.02193
1.03637
1.02283
1.03614
1.0241
1.03696
1.02536
1.03783
1.02692
1.03899
1.02869
1.03907
1.02993
1.04028
1.03123
1.04084
1.03225
1.04187
1.03268
1.04234
1.03311
1.0418
1.03395
1.04108
1.03382
1.04132
1.03441
1.04031
1.03537
1.03946
1.03458
1.03879
1.03381
1.03745
1.033
1.03523
1.03134
1.03213
1.02987
1.02952
1.02694
1.02734
1.02216
1.02352
1.0206
0.991891
1.02847
1.04474
1.02817
1.01007
1.02445
1.01203
1.01935
1.02181
1.01699
1.02885
1.01811
1.03033
1.01954
1.03073
1.02026
1.03165
1.02209
1.03301
1.02257
1.03371
1.02421
1.03466
1.02477
1.03503
1.0257
1.03619
1.02608
1.03635
1.02744
1.03819
1.02907
1.03911
1.03017
1.03992
1.03103
1.03947
1.03182
1.03942
1.03239
1.03931
1.0327
1.03862
1.03285
1.03763
1.03328
1.03758
1.03306
1.03646
1.03313
1.03502
1.03263
1.03327
1.03239
1.03239
1.0313
1.03032
1.02875
1.02822
1.02595
1.02612
1.02109
1.02233
1.01912
0.983266
1.05624
1.03986
1.03266
1.03383
1.02052
1.02548
1.02843
1.01963
1.03504
1.01839
1.03694
1.01945
1.03626
1.01923
1.03577
1.02122
1.03648
1.02158
1.03608
1.02224
1.03614
1.02319
1.03627
1.02386
1.03701
1.0253
1.03727
1.02747
1.03876
1.0287
1.03917
1.02983
1.04011
1.03124
1.04082
1.03208
1.04194
1.03244
1.04189
1.03323
1.04151
1.03352
1.04082
1.03399
1.04089
1.03415
1.03984
1.03469
1.03931
1.03409
1.03847
1.03359
1.03718
1.03242
1.0344
1.03098
1.03138
1.02952
1.02849
1.02636
1.02597
1.02187
1.02179
1.01956
0.989476
1.02961
1.04489
1.0296
1.00957
1.0242
1.01208
1.01848
1.02143
1.01652
1.02797
1.01781
1.03033
1.01887
1.02984
1.02108
1.03058
1.02109
1.0313
1.02224
1.0333
1.02301
1.03398
1.02431
1.03454
1.0249
1.03523
1.02598
1.03608
1.02611
1.0365
1.02769
1.03816
1.02915
1.03942
1.03002
1.03978
1.03095
1.03947
1.0317
1.03931
1.03212
1.03929
1.03227
1.03838
1.03245
1.03753
1.03288
1.03743
1.03231
1.03601
1.03248
1.03462
1.03219
1.03277
1.03199
1.03183
1.03069
1.02957
1.02819
1.02731
1.02607
1.02481
1.02067
1.02051
1.0181
0.98135
1.05525
1.04087
1.0328
1.03315
1.02081
1.02454
1.02815
1.01879
1.03456
1.01818
1.03665
1.0191
1.03578
1.02074
1.03604
1.02049
1.03579
1.02141
1.03521
1.02242
1.03512
1.02281
1.03573
1.0236
1.03636
1.02461
1.03671
1.02559
1.03719
1.02735
1.03856
1.02849
1.03916
1.0299
1.03992
1.03106
1.04085
1.03192
1.04165
1.03226
1.04163
1.033
1.04114
1.03338
1.04059
1.03354
1.04054
1.03357
1.03933
1.03457
1.03904
1.0336
1.03804
1.0331
1.0365
1.03196
1.03365
1.03067
1.03064
1.02906
1.02756
1.02579
1.02448
1.02146
1.01991
1.01832
0.987534
1.03061
1.04516
1.03084
1.00919
1.02403
1.01198
1.0177
1.02099
1.0161
1.0272
1.01785
1.02977
1.01871
1.02957
1.02017
1.03039
1.02154
1.0303
1.02244
1.03186
1.02225
1.03276
1.02324
1.03409
1.02446
1.03446
1.02518
1.03546
1.02612
1.03604
1.02656
1.03673
1.02789
1.0382
1.02904
1.03934
1.03027
1.03972
1.03092
1.03945
1.03136
1.03933
1.03197
1.03906
1.03203
1.0382
1.03201
1.03736
1.03214
1.03729
1.03187
1.03574
1.0319
1.03431
1.03174
1.03228
1.03163
1.0312
1.02995
1.02884
1.0278
1.02623
1.02585
1.02342
1.02016
1.01871
1.01675
0.979774
1.05427
1.04177
1.03299
1.0325
1.02111
1.02366
1.02795
1.01802
1.0341
1.01803
1.03644
1.01847
1.03577
1.01967
1.03514
1.02063
1.03465
1.02085
1.03513
1.02155
1.03392
1.02277
1.03552
1.02317
1.03548
1.02361
1.03597
1.02462
1.03655
1.02578
1.03699
1.0272
1.03845
1.02842
1.03902
1.02996
1.03973
1.03083
1.04076
1.03175
1.04161
1.03236
1.04141
1.03273
1.04086
1.03299
1.0404
1.03315
1.04015
1.03333
1.03886
1.0339
1.03864
1.03299
1.03753
1.03255
1.03576
1.03132
1.0327
1.03021
1.02992
1.02852
1.0263
1.02535
1.02296
1.02091
1.01834
1.017
0.985524
1.03153
1.04547
1.03193
1.00901
1.02387
1.01188
1.01709
1.02057
1.01571
1.02649
1.01765
1.03009
1.01833
1.03062
1.02031
1.03076
1.02055
1.03149
1.02242
1.0308
1.02305
1.03292
1.02252
1.03288
1.02348
1.03425
1.02453
1.03497
1.02546
1.03561
1.02623
1.03638
1.02678
1.03685
1.02804
1.03835
1.02914
1.03944
1.03036
1.03945
1.03096
1.03925
1.03127
1.03917
1.03178
1.03883
1.0317
1.03809
1.03165
1.03725
1.03176
1.03693
1.03146
1.03558
1.03141
1.03389
1.03131
1.03183
1.03124
1.03057
1.0293
1.02801
1.02727
1.02535
1.02535
1.02204
1.01965
1.01725
1.01575
0.977947
1.05346
1.04255
1.03314
1.03192
1.02137
1.02284
1.02777
1.01723
1.03365
1.01788
1.03654
1.01824
1.03583
1.01868
1.03406
1.01959
1.03285
1.02158
1.03276
1.02153
1.03446
1.02214
1.03333
1.02339
1.0351
1.02349
1.03511
1.02399
1.03574
1.02476
1.03632
1.02584
1.037
1.02723
1.03828
1.02852
1.03897
1.02983
1.03981
1.03075
1.04038
1.0317
1.04109
1.0322
1.04121
1.03243
1.04075
1.03268
1.04004
1.03269
1.03973
1.0329
1.03871
1.03326
1.03829
1.03247
1.03702
1.03196
1.03509
1.03072
1.03184
1.02972
1.02931
1.02734
1.0253
1.02487
1.02149
1.0203
1.01698
1.01629
0.983071
1.03236
1.04582
1.03297
1.00902
1.02366
1.01176
1.01664
1.02015
1.01544
1.02584
1.01747
1.02941
1.01846
1.0308
1.0196
1.03059
1.02133
1.03077
1.02125
1.03073
1.02194
1.03114
1.02309
1.03274
1.02307
1.03276
1.02376
1.03383
1.0248
1.03488
1.02557
1.03581
1.0264
1.03644
1.02683
1.03701
1.02814
1.03841
1.02916
1.0394
1.03039
1.0398
1.03098
1.03947
1.03116
1.03914
1.03165
1.03869
1.03142
1.03793
1.0313
1.03715
1.03139
1.03676
1.031
1.03529
1.03082
1.03357
1.03073
1.03142
1.03081
1.0298
1.02878
1.02727
1.02744
1.0244
1.02486
1.02058
1.01893
1.01575
1.01511
0.975993
1.05265
1.04329
1.03338
1.03138
1.02156
1.02212
1.02758
1.01642
1.03318
1.01769
1.03655
1.01828
1.03597
1.01758
1.03263
1.01948
1.0329
1.02109
1.03149
1.0226
1.03216
1.02268
1.0338
1.02294
1.03302
1.02344
1.0345
1.02369
1.03528
1.02409
1.03591
1.02497
1.03621
1.02599
1.037
1.02727
1.03817
1.02849
1.03902
1.0298
1.0399
1.03068
1.04037
1.03151
1.04094
1.03198
1.04096
1.03214
1.04042
1.0323
1.0399
1.03231
1.03935
1.03236
1.03842
1.03265
1.03782
1.03191
1.0366
1.0314
1.0344
1.03011
1.03136
1.02904
1.02859
1.02634
1.02429
1.02429
1.02002
1.01974
1.01542
1.01547
0.980622
1.03312
1.0462
1.03399
1.00905
1.02338
1.01168
1.01628
1.01976
1.01528
1.02527
1.01745
1.02888
1.01812
1.02937
1.02035
1.0306
1.02115
1.03093
1.02194
1.03083
1.02193
1.03151
1.02254
1.03131
1.02297
1.03263
1.02329
1.03325
1.02391
1.034
1.02488
1.0348
1.02551
1.03578
1.02636
1.0363
1.02698
1.03709
1.02815
1.0384
1.02915
1.03934
1.03043
1.03976
1.03073
1.03949
1.03107
1.03907
1.03145
1.03838
1.03118
1.03778
1.03094
1.03692
1.03099
1.03623
1.03001
1.03518
1.03031
1.03322
1.03021
1.03091
1.0302
1.02917
1.02822
1.02662
1.02674
1.02339
1.02424
1.01909
1.0185
1.01408
1.01415
0.974484
1.05214
1.04396
1.03376
1.03091
1.02171
1.02146
1.02743
1.01564
1.03271
1.01745
1.03633
1.01797
1.03538
1.01892
1.03379
1.01973
1.03255
1.02103
1.03203
1.02204
1.03217
1.02284
1.03191
1.02261
1.03278
1.02355
1.0328
1.02366
1.03398
1.02387
1.0352
1.0244
1.03584
1.02524
1.03593
1.02614
1.03692
1.02727
1.03814
1.02855
1.03891
1.0298
1.03971
1.03059
1.0404
1.03158
1.04068
1.03176
1.0407
1.03189
1.0404
1.03199
1.03965
1.0319
1.03915
1.03191
1.03835
1.03275
1.03751
1.03132
1.03607
1.03077
1.03383
1.02948
1.03061
1.02831
1.02779
1.02572
1.0232
1.02368
1.0186
1.01901
1.01376
1.01347
0.97548
1.03374
1.04663
1.03498
1.00909
1.02307
1.01169
1.01598
1.01942
1.01521
1.02479
1.01753
1.02881
1.01843
1.02895
1.01973
1.02922
1.02136
1.03011
1.02145
1.03085
1.02213
1.03096
1.02235
1.0315
1.02306
1.03232
1.02332
1.03275
1.02368
1.03339
1.02404
1.03403
1.02496
1.03481
1.02569
1.03605
1.02646
1.03643
1.02726
1.03718
1.02826
1.03854
1.02921
1.0395
1.03036
1.03964
1.03073
1.0395
1.03087
1.03901
1.03123
1.03825
1.03088
1.03765
1.0306
1.03682
1.03058
1.0361
1.02961
1.03486
1.02956
1.03298
1.02958
1.03047
1.02951
1.02839
1.02763
1.02589
1.02598
1.02241
1.02349
1.01765
1.01825
1.01254
1.01114
0.969559
1.0517
1.0446
1.034
1.03047
1.02183
1.02086
1.02727
1.01486
1.03227
1.01722
1.03595
1.01764
1.03537
1.01851
1.03262
1.02019
1.03261
1.02073
1.03218
1.02161
1.03124
1.02195
1.03199
1.02323
1.03205
1.02304
1.03176
1.02359
1.03279
1.02388
1.03381
1.02413
1.03487
1.02447
1.03583
1.02525
1.03594
1.02628
1.03692
1.02737
1.03801
1.0285
1.03886
1.02972
1.03974
1.0306
1.04019
1.03145
1.04056
1.0316
1.04065
1.03161
1.0401
1.03165
1.03934
1.03144
1.0389
1.03147
1.03821
1.03208
1.03719
1.031
1.03561
1.03023
1.03323
1.02872
1.03013
1.02754
1.02698
1.02498
1.02219
1.0229
1.01735
1.01805
1.01214
1.01625
0.973732
1.03422
1.04703
1.03597
1.00922
1.02275
1.01177
1.01573
1.01914
1.01519
1.02439
1.01757
1.02864
1.01831
1.02817
1.02002
1.0294
1.02141
1.02969
1.0213
1.03025
1.02199
1.03095
1.02247
1.03097
1.02237
1.03162
1.02308
1.03257
1.02348
1.03277
1.0238
1.03322
1.02429
1.03427
1.02507
1.0348
1.02573
1.03596
1.02653
1.03642
1.02734
1.03737
1.02836
1.03862
1.02918
1.03947
1.03035
1.03963
1.03068
1.0395
1.03074
1.03883
1.03097
1.03816
1.03062
1.03761
1.03019
1.03666
1.03016
1.03597
1.02904
1.03458
1.02905
1.03268
1.02902
1.03005
1.02893
1.02771
1.027
1.02517
1.02522
1.02125
1.02278
1.01631
1.01717
1.00993
1.01473
0.968624
1.05124
1.04524
1.03422
1.02994
1.02188
1.02029
1.02708
1.01412
1.03185
1.01698
1.03559
1.0176
1.03509
1.01791
1.03147
1.02057
1.03227
1.01984
1.03087
1.02122
1.03144
1.02235
1.0314
1.02253
1.03212
1.02335
1.03178
1.02341
1.03196
1.02373
1.03271
1.0242
1.03394
1.02431
1.0349
1.02456
1.0358
1.02548
1.0361
1.02633
1.03699
1.02741
1.03795
1.02847
1.03891
1.02979
1.03971
1.03056
1.03988
1.03131
1.0404
1.03131
1.04045
1.03138
1.03977
1.03135
1.0392
1.03105
1.03867
1.0311
1.03798
1.03168
1.03681
1.03042
1.0351
1.02958
1.03263
1.02808
1.02948
1.02673
1.02614
1.02423
1.02124
1.02208
1.01612
1.01712
1.01013
1.01418
0.972608
1.03499
1.0476
1.03689
1.00941
1.02248
1.01196
1.01552
1.01893
1.01518
1.02404
1.01751
1.02834
1.01856
1.02756
1.02097
1.0288
1.02108
1.02944
1.02172
1.03032
1.02206
1.0305
1.0222
1.0308
1.02249
1.03092
1.02231
1.03118
1.02318
1.03233
1.02376
1.03275
1.02393
1.03326
1.02426
1.03427
1.02517
1.03487
1.02581
1.03599
1.02659
1.03649
1.02735
1.03745
1.02842
1.03851
1.02926
1.03953
1.03033
1.03986
1.03059
1.03949
1.03047
1.03884
1.03074
1.03785
1.03031
1.03752
1.02987
1.03657
1.02975
1.03584
1.02864
1.03436
1.02866
1.03234
1.0284
1.02966
1.02812
1.02717
1.02628
1.02439
1.02435
1.02031
1.02186
1.01509
1.01631
1.00931
1.01254
0.96809
1.05081
1.04588
1.0344
1.02931
1.02187
1.01974
1.02688
1.01343
1.03142
1.01678
1.0354
1.0173
1.03385
1.01828
1.03096
1.02049
1.03151
1.02069
1.03108
1.0219
1.03048
1.02185
1.03071
1.02233
1.03156
1.02278
1.03197
1.02333
1.03232
1.02346
1.03221
1.02369
1.03293
1.02417
1.03389
1.02438
1.03484
1.02467
1.03579
1.02555
1.03614
1.02638
1.03702
1.02737
1.03794
1.02848
1.03904
1.02971
1.03964
1.03053
1.03985
1.03114
1.04028
1.03125
1.04036
1.03116
1.03986
1.03102
1.03898
1.03068
1.0384
1.03063
1.03772
1.03106
1.03639
1.02983
1.03449
1.02896
1.0319
1.02747
1.02879
1.02586
1.02535
1.02328
1.02023
1.02109
1.01488
1.0162
1.00933
1.01171
0.97189
1.03572
1.04805
1.03765
1.00977
1.02228
1.01221
1.01532
1.01873
1.01518
1.02365
1.01777
1.0273
1.01929
1.02858
1.02128
1.0289
1.02124
1.02891
1.02145
1.0297
1.02233
1.03018
1.02251
1.03033
1.02248
1.03057
1.02261
1.03084
1.0228
1.03133
1.02322
1.03224
1.02386
1.03276
1.02398
1.03317
1.02443
1.03419
1.02524
1.03482
1.02588
1.03594
1.02664
1.03654
1.0275
1.0375
1.02849
1.03858
1.02936
1.03947
1.03032
1.03984
1.03052
1.0395
1.03035
1.03873
1.03052
1.03779
1.03003
1.03739
1.0296
1.03635
1.02935
1.03572
1.02831
1.03405
1.0283
1.03196
1.0278
1.02928
1.02728
1.02662
1.02554
1.02363
1.02346
1.01923
1.0209
1.01393
1.01533
1.00841
1.00988
0.966465
1.0505
1.04665
1.03454
1.02885
1.02178
1.01921
1.0267
1.01285
1.03102
1.01661
1.03473
1.01812
1.03208
1.01872
1.03115
1.02039
1.0308
1.02111
1.0306
1.02191
1.03014
1.02222
1.03066
1.02222
1.03115
1.02253
1.0316
1.02295
1.03212
1.02335
1.0322
1.02359
1.03215
1.02373
1.03293
1.02429
1.03404
1.02451
1.03487
1.02482
1.03575
1.02554
1.03606
1.02645
1.03708
1.02739
1.03786
1.02857
1.03897
1.02965
1.03967
1.03043
1.03979
1.03097
1.04014
1.03108
1.04025
1.03088
1.03968
1.03073
1.03873
1.03046
1.0383
1.03018
1.03739
1.03048
1.03585
1.02935
1.03382
1.02841
1.0313
1.02676
1.02808
1.02498
1.02449
1.02226
1.01942
1.02
1.0138
1.01521
1.00823
1.00894
0.966598
1.03631
1.04842
1.03837
1.00994
1.02219
1.01245
1.0151
1.01857
1.01517
1.02331
1.01809
1.02719
1.02047
1.02795
1.02025
1.02796
1.02169
1.02898
1.02199
1.02941
1.02215
1.02992
1.02239
1.02976
1.02298
1.03029
1.02284
1.03047
1.0229
1.03088
1.02303
1.03129
1.02337
1.03239
1.02388
1.03274
1.02412
1.03325
1.02457
1.0343
1.02527
1.03484
1.02601
1.03604
1.02673
1.03661
1.02755
1.03765
1.02855
1.03865
1.02938
1.03939
1.03026
1.03969
1.03045
1.03937
1.03021
1.03864
1.03024
1.03775
1.02976
1.03726
1.0292
1.03622
1.02895
1.0355
1.02797
1.03372
1.028
1.03137
1.0272
1.0288
1.02649
1.02602
1.02475
1.02288
1.02245
1.01828
1.01974
1.01293
1.01425
1.00709
1.01143
0.964319
1.05025
1.04734
1.03463
1.02837
1.02171
1.01874
1.02655
1.01234
1.03061
1.01644
1.03424
1.01796
1.03285
1.01879
1.03106
1.02068
1.03053
1.02139
1.02979
1.02164
1.03022
1.02224
1.03011
1.02264
1.03031
1.02241
1.03108
1.02262
1.03171
1.02301
1.03195
1.0235
1.03226
1.02365
1.03221
1.02382
1.03297
1.02426
1.03403
1.02447
1.03485
1.02493
1.03588
1.02562
1.0361
1.02647
1.03704
1.02744
1.03786
1.02861
1.03895
1.02967
1.03965
1.03045
1.03989
1.03081
1.04013
1.03091
1.04009
1.03065
1.03947
1.03047
1.0385
1.03015
1.0381
1.02978
1.03712
1.0299
1.03544
1.02897
1.03358
1.0277
1.03064
1.02597
1.0273
1.02404
1.02363
1.02125
1.01853
1.01886
1.01277
1.01423
1.00577
1.01047
0.966676
1.03694
1.04884
1.03894
1.01013
1.02213
1.01268
1.01485
1.01841
1.01517
1.02301
1.01831
1.02711
1.01968
1.02738
1.02133
1.02736
1.02173
1.02865