/*--------------------------------*- C++ -*----------------------------------*\
| =========                 |                                                 |
| \\      /  F ield         | OpenFOAM: The Open Source CFD Toolbox           |
|  \\    /   O peration     | Version:  2206                                  |
|   \\  /    A nd           | Website:  www.openfoam.com                      |
|    \\/     M anipulation  |                                                 |
\*---------------------------------------------------------------------------*/
FoamFile
{
    version     2.0;
    format      ascii;
    arch        "LSB;label=32;scalar=64";
    class       volScalarField;
    location    "170";
    object      pPrime2Mean;
}
// * * * * * * * * * * * * * * * * * * * * * * * * * * * * * * * * * * * * * //

dimensions      [2 -2 -4 0 0 0 0];

internalField   nonuniform List<scalar> 
93840
(
0.00440263
0.00369944
0.0234175
0.000488987
0.00359462
0.0286392
0.00313856
0.00487224
0.00287018
0.0288618
0.000302336
0.00871794
0.00407261
0.00447274
0.0378723
0.000215562
0.00907089
0.00651202
0.00271724
0.00590735
0.0621292
0.000393959
0.00479298
0.00663629
0.00646936
0.00336
0.0089583
0.076737
0.000247174
0.00650563
0.00497703
0.003265
0.00581895
0.00669337
0.0116358
0.12012
0.000371879
0.00306229
0.00597191
0.003972
0.00234464
0.00913379
0.00457732
0.00748503
0.103451
0.000310679
0.00272438
0.00380232
0.00381209
0.00549358
0.00439956
0.010285
0.00572475
0.00857008
0.142135
0.000316307
0.00167309
0.00392473
0.00311771
0.00234921
0.00838972
0.0039073
0.0055563
0.00673436
0.00753509
0.103148
0.000264069
0.00239947
0.00313906
0.00249042
0.0051842
0.00300955
0.00691265
0.00338181
0.00428653
0.00874541
0.00793637
0.118156
0.00026231
0.00136808
0.0039789
0.00253962
0.00242256
0.0070041
0.00198427
0.00311804
0.00292335
0.00446424
0.00965397
0.00713166
0.10028
0.000303842
0.00196405
0.00354845
0.00236415
0.00429269
0.00211461
0.00439765
0.00275176
0.00242683
0.00397421
0.0037602
0.00673052
0.00745347
0.115523
0.000201877
0.00107534
0.00394093
0.00275892
0.0019982
0.00593733
0.00115127
0.00276203
0.00201815
0.00247516
0.00408684
0.00454264
0.00918652
0.00671061
0.0954024
0.000269492
0.0016267
0.00367034
0.00218628
0.00366486
0.00166547
0.0030114
0.00180389
0.00205402
0.00272741
0.0023597
0.00387123
0.00401018
0.00756025
0.00694146
0.112149
0.000197115
0.00089957
0.00387737
0.00289962
0.00173019
0.00467817
0.00072518
0.00215504
0.00134097
0.00230435
0.00248829
0.00277595
0.00456113
0.00434765
0.00843809
0.00624481
0.0927499
0.000333029
0.00136022
0.00396586
0.00209802
0.00299954
0.00140708
0.00203905
0.00101451
0.00170418
0.00177998
0.00169243
0.00257762
0.00225848
0.00401527
0.00406108
0.00770435
0.0064601
0.109119
0.000236755
0.000927543
0.00388663
0.00293606
0.00149779
0.00383327
0.000437227
0.00192218
0.000960026
0.00196829
0.00157865
0.00202393
0.00275274
0.00304654
0.00462674
0.00430078
0.00816463
0.00585509
0.0900578
0.000400059
0.00116497
0.00415333
0.00203265
0.00255468
0.00127291
0.00135981
0.000535463
0.00116968
0.00103804
0.00141781
0.0017349
0.00148991
0.00266801
0.00237589
0.0042623
0.00383474
0.00784512
0.00605986
0.105066
0.000378503
0.00112956
0.00377554
0.00288288
0.00125886
0.00330502
0.00029683
0.00162124
0.000694107
0.00168762
0.00107836
0.0017987
0.00174167
0.0018775
0.00276251
0.00293442
0.00446646
0.00388717
0.00804128
0.00550776
0.0877586
0.000458368
0.00103842
0.00393378
0.0019567
0.00205408
0.00116856
0.000804366
0.000374097
0.000694855
0.000594826
0.000914728
0.00108444
0.00122892
0.00173285
0.00143433
0.00259406
0.00216429
0.00435724
0.00350515
0.00793762
0.00573282
0.10013
0.000608839
0.00136907
0.00350108
0.00282062
0.00103304
0.0027306
0.000291141
0.00126004
0.000469851
0.00132621
0.000740179
0.00155069
0.00115651
0.00169007
0.00185693
0.00189482
0.0025548
0.00271679
0.00454484
0.00349068
0.0079385
0.00521817
0.0861917
0.000484269
0.00102925
0.00381502
0.00188517
0.0017116
0.0010928
0.000410163
0.000347601
0.000317633
0.000409684
0.000530063
0.000631716
0.000867819
0.00109852
0.00122348
0.00167431
0.00134017
0.00262793
0.00188094
0.00447054
0.00328491
0.00797296
0.0054246
0.0947777
0.000712081
0.00161779
0.00330376
0.00281031
0.000882263
0.00201044
0.000285864
0.000931016
0.0003348
0.000926581
0.000492095
0.00126083
0.000739829
0.00142833
0.00122942
0.00123207
0.001939
0.00159138
0.00240704
0.0022783
0.00455505
0.00330841
0.00780389
0.00493789
0.0956745
0.000483201
0.00109576
0.0037205
0.00178618
0.0014413
0.000953847
0.000225257
0.000402401
0.000136398
0.000389741
0.000221583
0.000448265
0.000473969
0.000719903
0.000790194
0.00108159
0.00111557
0.00167993
0.00138355
0.00255579
0.00179656
0.00466213
0.00311862
0.00798251
0.00492008
0.100186
0.000725951
0.00171575
0.00328146
0.0025965
0.000751308
0.00136001
0.000214022
0.00044972
0.000211888
0.000641114
0.000370037
0.000845617
0.000520349
0.00111016
0.0008075
0.00128868
0.00124955
0.00129917
0.00169774
0.00136882
0.00232846
0.00206876
0.0045667
0.0031344
0.00784124
0.00485146
0.0897699
0.000489608
0.0011858
0.00349588
0.00161285
0.00122384
0.000788418
0.000208558
0.000470869
0.000127955
0.000380695
9.98213e-05
0.000361494
0.000210615
0.000482942
0.000486102
0.000735923
0.000807499
0.00110873
0.00107923
0.00168607
0.00137579
0.00251504
0.00169989
0.00475193
0.0027942
0.00873305
0.0048674
0.0892062
0.000686922
0.00161853
0.00324341
0.00229419
0.000605607
0.000991787
0.000167161
0.0002058
0.000129152
0.000306552
0.000201219
0.000509354
0.000366269
0.00080979
0.000522299
0.000990221
0.000814952
0.00115894
0.00122191
0.00128217
0.00163704
0.00133408
0.00244301
0.00200487
0.00462093
0.00282522
0.00825469
0.00446102
0.0824711
0.000508076
0.00116558
0.00314038
0.00143181
0.000965032
0.000660958
0.000142794
0.000497984
0.000155208
0.000416784
8.56181e-05
0.000342442
0.000110959
0.000349905
0.000253138
0.000500456
0.000523757
0.000746293
0.00078166
0.00115945
0.00100855
0.00171698
0.00129071
0.00269696
0.00175836
0.00481524
0.00263541
0.00793116
0.00455322
0.0837123
0.000645379
0.00148453
0.00317582
0.00200539
0.000468611
0.000796525
0.000144016
0.000137119
0.000134873
0.000188655
0.000116749
0.000305092
0.000208728
0.000476013
0.000348562
0.000700721
0.000424754
0.000910432
0.000715117
0.000794454
0.00111827
0.00123324
0.00161848
0.00145581
0.00256251
0.00192225
0.00461125
0.00274511
0.00780476
0.00456956
0.0781383
0.000549628
0.00110639
0.00270034
0.00126302
0.000797164
0.000570685
0.000114978
0.000441961
0.000165145
0.00044874
0.000117177
0.000389633
0.000129687
0.000288463
0.000145952
0.000326703
0.000299289
0.000495605
0.00052166
0.000700149
0.000770448
0.00114867
0.000962639
0.00177939
0.00127772
0.00274925
0.00183018
0.00478269
0.00253165
0.00785532
0.00440035
0.0796751
0.000622247
0.00141671
0.00310393
0.00178886
0.000379769
0.000551461
0.000134147
0.000112338
0.00019456
0.00012996
0.000158449
0.000185989
0.000150529
0.000292438
0.000196799
0.000456333
0.000283711
0.000639547
0.000379096
0.000808338
0.000664654
0.000908226
0.00109679
0.0012419
0.00161627
0.00148688
0.0025864
0.00184244
0.00460132
0.00275672
0.00774093
0.00410109
0.0749456
0.000574274
0.00123565
0.00230796
0.00122898
0.000793586
0.000465597
0.000145144
0.000400497
0.000156689
0.000468366
0.000126036
0.000390312
8.87793e-05
0.000280768
0.000114167
0.000206605
0.000187224
0.000290258
0.000334378
0.000453819
0.000535579
0.000686353
0.00076502
0.00114924
0.00091165
0.00178444
0.00129562
0.00280023
0.00180586
0.0048037
0.00243416
0.00759182
0.00399332
0.0762859
0.00058557
0.00126742
0.00308219
0.0016404
0.000341978
0.00035515
0.00015122
9.53393e-05
0.000205275
0.000123982
0.000201058
0.000158816
0.000168125
0.000192202
0.000155798
0.000271694
0.000187333
0.000449212
0.000237055
0.000603229
0.000340452
0.000787449
0.00061168
0.000901136
0.00107827
0.00132346
0.00163081
0.00150953
0.00258852
0.00193163
0.00462445
0.00255225
0.00755792
0.00378187
0.0719821
0.000564712
0.00129418
0.00195934
0.00119099
0.000793026
0.000338085
0.000153754
0.000398129
0.000143063
0.000449924
0.00013561
0.000424583
0.000113768
0.000324634
9.07683e-05
0.00024111
0.000134462
0.000181357
0.00023882
0.000268101
0.000364197
0.00040583
0.00055808
0.000654503
0.000763087
0.00113076
0.000854213
0.00178253
0.0013117
0.00285298
0.00179752
0.00481094
0.00237622
0.00738825
0.00368487
0.0732235
0.000568501
0.00111925
0.00305868
0.00147105
0.000336714
0.000279008
0.000171797
8.47577e-05
0.000223188
0.00011228
0.000232776
0.000125408
0.000198981
0.000170577
0.000158387
0.000165492
0.000145173
0.000251146
0.000170463
0.000430785
0.000211591
0.000564187
0.000323036
0.000684231
0.000592358
0.000925102
0.00100938
0.00135855
0.00161479
0.0014988
0.0025966
0.0019851
0.00464299
0.00239587
0.00734075
0.00353991
0.0690694
0.000538864
0.00145715
0.00163499
0.0011842
0.000690665
0.000254197
0.000152244
0.000416443
0.000127542
0.000504339
0.000162518
0.000444436
0.000125874
0.000384544
9.73574e-05
0.000305274
8.44669e-05
0.000205696
0.000161452
0.0001549
0.000266927
0.000241018
0.000391421
0.000329202
0.000607068
0.000635255
0.000768469
0.0011024
0.000960201
0.00172516
0.00133369
0.00286396
0.00181539
0.00481536
0.00227226
0.00716033
0.00343116
0.0701458
0.000569256
0.000975794
0.003061
0.00122054
0.000361366
0.000261804
0.000201572
7.6535e-05
0.000255834
0.000133024
0.000297188
0.000109297
0.000226935
0.000128384
0.000205942
0.000152788
0.00015369
0.000160187
0.000156502
0.000194512
0.000167753
0.000422442
0.00019199
0.000582106
0.000325944
0.000699623
0.000574782
0.000927777
0.000997465
0.00132338
0.00155184
0.00155293
0.00263003
0.00204719
0.00460066
0.00235802
0.00714572
0.00339131
0.0663011
0.000512171
0.00164246
0.00137342
0.00119765
0.000559948
0.000216137
0.000155596
0.000420077
0.000125253
0.000538425
0.000138808
0.000469391
0.000119055
0.000408626
0.000110739
0.000363875
7.63947e-05
0.000276595
9.16811e-05
0.000171054
0.000171094
0.000135548
0.000288733
0.000226926
0.000402707
0.000337098
0.000617768
0.000613019
0.000789306
0.0010884
0.000970597
0.0017739
0.00136614
0.00288079
0.00184213
0.0047845
0.00219276
0.00699357
0.0032583
0.0672086
0.000587761
0.000873649
0.0030911
0.00101556
0.000380095
0.000263215
0.000212445
6.4295e-05
0.000267095
0.000154706
0.000284505
0.000112549
0.000288684
0.000106953
0.000228177
0.000108788
0.000204184
0.000138047
0.00015632
0.000128467
0.000147047
0.000203919
0.000134695
0.00043587
0.000184869
0.000575615
0.000328305
0.000682869
0.00055888
0.000951901
0.000952485
0.00133387
0.00153572
0.00159084
0.00264915
0.00210705
0.00456443
0.00239344
0.00699272
0.00321846
0.0634743
0.000484386
0.00182648
0.00109568
0.00119193
0.00043196
0.000176774
0.000170754
0.000435562
0.00011794
0.000522431
0.000111664
0.000468226
9.9341e-05
0.000514617
9.88488e-05
0.000381395
9.37255e-05
0.00033499
5.96006e-05
0.000266409
9.99572e-05
0.00016427
0.000189744
0.000125039
0.000288191
0.000205092
0.00042709
0.000329836
0.000633326
0.000600517
0.000829526
0.0010853
0.000994961
0.00176992
0.00141488
0.00285856
0.00185569
0.00472296
0.00217605
0.00686875
0.00310358
0.0644442
0.000631606
0.000777497
0.00308525
0.000840431
0.000373468
0.000287225
0.000216742
5.0268e-05
0.000266213
0.000116032
0.0002719
0.000101022
0.000279067
0.000106182
0.000209567
9.78837e-05
0.000188996
0.000101182
0.000197903
0.00012174
0.000142432
0.000131493
0.000141884
0.000208606
0.000116566
0.000414099
0.000179186
0.000567918
0.000320031
0.00069654
0.000547874
0.000961554
0.000922668
0.00134931
0.00151802
0.00165515
0.0026542
0.00218297
0.00449601
0.00242338
0.00684505
0.00306762
0.0604337
0.000448578
0.00198135
0.000858777
0.00116486
0.000309733
0.00017911
0.000177438
0.000424244
0.000128572
0.000526707
0.000104302
0.000484076
0.000103852
0.00042293
0.000111518
0.000462469
8.09824e-05
0.00036983
8.18606e-05
0.000320495
6.10295e-05
0.000268337
0.000105427
0.000162319
0.000207837
0.000118987
0.000311687
0.000186762
0.00044015
0.000324777
0.000652826
0.000590497
0.000852934
0.00103107
0.00102861
0.0017393
0.00142955
0.00283628
0.00186797
0.00464391
0.00219215
0.0067387
0.0029656
0.0611227
0.000686315
0.000691733
0.00304319
0.000657697
0.000364468
0.00028828
0.000209769
5.38808e-05
0.000302439
9.68718e-05
0.000290547
9.05513e-05
0.000268206
7.87917e-05
0.000247571
9.01822e-05
0.000239487
8.46835e-05
0.000176407
9.34867e-05
0.000198553
0.000110454
0.000136977
0.000132628
0.000132535
0.000213747
0.000111186
0.000384698
0.000179978
0.000544044
0.000316724
0.000709023
0.000542109
0.000977998
0.000876279
0.00136061
0.00149264
0.00172419
0.0026233
0.00225798
0.00441529
0.00247614
0.00670566
0.00303019
0.0573033
0.000416512
0.00208687
0.000676975
0.00113794
0.000226674
0.000202771
0.000176743
0.000399498
0.000134145
0.00052209
0.000131383
0.00049214
8.84423e-05
0.000432453
8.30023e-05
0.000412976
0.000107337
0.000399431
7.80617e-05
0.000357087
6.80004e-05
0.00029231
6.51969e-05
0.000257732
0.000112987
0.000158485
0.000216767
0.000108276
0.000339611
0.000177462
0.000471381
0.000302641
0.000670223
0.00058772
0.000876851
0.00104561
0.00107306
0.00170787
0.00146386
0.00279118
0.00188145
0.00455538
0.00220804
0.00657429
0.00292737
0.0580663
0.000742487
0.000588388
0.00298941
0.000534724
0.000369365
0.000263822
0.000207835
6.45692e-05
0.000325152
9.58071e-05
0.000307651
8.36689e-05
0.000284831
7.77039e-05
0.000248145
6.69966e-05
0.000338635
7.67767e-05
0.000239271
7.53633e-05
0.000181627
8.77429e-05
0.000189304
9.70449e-05
0.000134698
0.000135316
0.000128666
0.000227589
0.00010958
0.000355886
0.000176121
0.000533204
0.000292254
0.000717347
0.000543559
0.000986334
0.000864909
0.00137139
0.00146101
0.00175559
0.00256501
0.00228454
0.00432095
0.00252842
0.00656397
0.00301674
0.0544416
0.000400362
0.00215645
0.000543777
0.00111164
0.000197476
0.000224281
0.000165008
0.000371979
0.000139161
0.000459481
0.000112618
0.000449597
9.06034e-05
0.000461816
7.97669e-05
0.000413587
7.2896e-05
0.000377315
0.000107209
0.00034396
7.62962e-05
0.000351187
6.35773e-05
0.000288248
7.05269e-05
0.000242593
0.000124868
0.000137591
0.000220799
0.000107838
0.000356906
0.000175701
0.00048917
0.000326053
0.000684746
0.000574241
0.000884504
0.00101143
0.0011221
0.00167102
0.00150401
0.00272229
0.00189811
0.00446061
0.00224091
0.0064368
0.00290772
0.0552346
0.000803503
0.000490428
0.00294298
0.000430448
0.00038663
0.000235214
0.000215082
7.82257e-05
0.000303425
9.73623e-05
0.000288536
7.91571e-05
0.000240223
7.72406e-05
0.00025252
6.15043e-05
0.000241446
5.67282e-05
0.000260038
7.18407e-05
0.000242836
6.76266e-05
0.000184629
8.25877e-05
0.00020207
9.40827e-05
0.000147199
0.000135525
0.000115896
0.000233289
0.000101657
0.000374785
0.000175332
0.000528726
0.000294338
0.000732519
0.000530045
0.00102239
0.000857531
0.00139361
0.00142536
0.00178107
0.00246478
0.00222053
0.00422074
0.00253406
0.00643134
0.00301274
0.0517567
0.000381417
0.00219267
0.00045521
0.00107234
0.000191479
0.00023931
0.000147251
0.000352315
0.000141385
0.000434453
9.9684e-05
0.000406008
0.000100147
0.000409917
9.03086e-05
0.00037705
7.66007e-05
0.000396067
7.47176e-05
0.000350315
0.000102088
0.000306985
6.43195e-05
0.000325563
5.82591e-05
0.000292155
8.048e-05
0.000240121
0.000129724
0.000140693
0.000219321
0.000106969
0.000352186
0.000172621
0.000499675
0.00032503
0.000712244
0.000572806
0.000914338
0.000976255
0.00115676
0.00162061
0.00154003
0.00261933
0.00198414
0.0043534
0.0023184
0.00629922
0.00290596
0.0525031
0.000860615
0.000427415
0.00285904
0.000317893
0.000403969
0.000212547
0.000220604
9.18412e-05
0.000279025
0.000100354
0.000320518
8.46344e-05
0.00025532
6.34308e-05
0.000234262
5.23263e-05
0.000214233
5.93343e-05
0.000224873
6.47318e-05
0.000238103
5.95861e-05
0.000224431
5.7876e-05
0.000186485
7.35667e-05
0.000190635
8.71642e-05
0.00015566
0.000137019
0.000123542
0.000247005
0.000109428
0.000367508
0.000180595
0.00053019
0.000301376
0.000743726
0.000519578
0.00102476
0.000844555
0.00143012
0.0013921
0.00179177
0.00240813
0.00224168
0.00413554
0.00260102
0.00628446
0.00300896
0.0490182
0.000360694
0.00219083
0.000375359
0.001016
0.000186155
0.000252178
0.000123277
0.000344816
0.000133498
0.0004077
9.46302e-05
0.000376262
8.73899e-05
0.000348596
0.000101568
0.000370683
0.000100608
0.000366019
7.35653e-05
0.000381219
8.23618e-05
0.000317641
9.15829e-05
0.0003002
6.72081e-05
0.000308875
5.6185e-05
0.000276937
8.68511e-05
0.000208227
0.000136498
0.000139989
0.00021848
0.00011313
0.000357685
0.000170263
0.000511216
0.000324367
0.000722315
0.000572286
0.000927438
0.000933252
0.00118438
0.00157204
0.0015658
0.00253294
0.00201069
0.00423868
0.0023531
0.00616103
0.00288817
0.0497075
0.000913472
0.00037873
0.00272117
0.000237739
0.000413294
0.00019214
0.000224696
0.000101316
0.000262124
0.000109976
0.000292638
0.000102114
0.000260095
5.72497e-05
0.000271336
6.07394e-05
0.000226955
5.57206e-05
0.000218335
6.35646e-05
0.000209963
6.01525e-05
0.000221465
4.65816e-05
0.00020565
5.41839e-05
0.000183463
6.72895e-05
0.000191278
7.97068e-05
0.000165957
0.000143216
0.000126868
0.000250422
0.000117681
0.00036536
0.000179907
0.000529504
0.000304749
0.000763821
0.000513572
0.00106206
0.000793891
0.00145645
0.00135119
0.00178206
0.00233676
0.00228499
0.00403694
0.00267295
0.00611757
0.00301212
0.0463599
0.000346405
0.00216339
0.000342975
0.000936436
0.000174631
0.00026795
0.000103645
0.000340564
0.000122725
0.000385532
9.55214e-05
0.000350442
8.06972e-05
0.000333371
8.16112e-05
0.000325474
7.822e-05
0.000342733
9.10515e-05
0.000339193
7.03767e-05
0.000351553
8.70098e-05
0.000270984
8.87947e-05
0.000281497
6.60519e-05
0.000296843
5.0117e-05
0.000251344
8.89935e-05
0.000193151
0.000146553
0.000137785
0.000228203
0.000122096
0.000368652
0.000168481
0.000527412
0.000322149
0.00074446
0.000565771
0.000950448
0.000960896
0.00121082
0.00150123
0.00160258
0.00247938
0.00205232
0.00411682
0.00236474
0.00602422
0.00288555
0.0470981
0.000960221
0.000333879
0.00259787
0.000183918
0.000407379
0.000172261
0.000222932
0.000107372
0.000247356
0.000107903
0.000253596
0.000102519
0.000217834
5.61474e-05
0.000262933
5.42965e-05
0.000235634
5.92717e-05
0.000223383
5.04914e-05
0.000211853
6.86567e-05
0.000211114
5.58441e-05
0.000194498
4.29111e-05
0.000193817
5.12615e-05
0.000173521
6.12891e-05
0.000188558
7.95765e-05
0.000167623
0.000146117
0.000131544
0.000250503
0.000116065
0.000364759
0.000179554
0.000530248
0.000307003
0.000741025
0.000507857
0.00107732
0.000799376
0.00148077
0.00128988
0.00183022
0.00227834
0.00230898
0.00392987
0.00272346
0.00596085
0.00300484
0.0438078
0.000328414
0.00207978
0.000325187
0.00081565
0.000169959
0.000276538
9.10812e-05
0.000338786
0.000124821
0.000373557
7.75599e-05
0.000348002
8.63339e-05
0.000314473
7.49462e-05
0.000302487
7.18936e-05
0.000309384
7.21914e-05
0.00029712
8.60266e-05
0.000293253
8.35568e-05
0.000307616
8.74378e-05
0.000266242
8.56474e-05
0.000257531
6.70873e-05
0.000278253
5.36284e-05
0.000242475
9.08576e-05
0.000188472
0.00015102
0.000140424
0.000235244
0.000123007
0.000372831
0.000161855
0.000534116
0.000323747
0.000749474
0.000561661
0.000975097
0.000931842
0.00124892
0.00149881
0.00163235
0.00241114
0.00208801
0.00398444
0.0023818
0.00589616
0.00289458
0.0444778
0.000986365
0.000304107
0.00247402
0.000178522
0.000387619
0.000155966
0.000223276
0.000113193
0.000237374
0.000106757
0.000244493
8.73767e-05
0.000220129
6.67459e-05
0.000217155
5.35554e-05
0.000206664
4.47535e-05
0.000219119
4.85662e-05
0.00019024
4.76625e-05
0.00019977
6.7613e-05
0.000231736
4.67408e-05
0.000187425
5.08478e-05
0.00018914
4.75912e-05
0.000179853
5.72098e-05
0.000192546
8.39874e-05
0.000170221
0.000162246
0.000140421
0.000251014
0.000134802
0.000363247
0.000186676
0.000535283
0.000309828
0.000763558
0.000517924
0.00108493
0.000802218
0.00148108
0.00126693
0.0018561
0.00222158
0.00234681
0.00380695
0.00272154
0.00580462
0.00302268
0.0413062
0.000307755
0.00201829
0.000310143
0.000757526
0.000171455
0.000270544
8.71318e-05
0.000336998
0.000125502
0.000347376
8.10594e-05
0.000376497
6.85996e-05
0.000283593
7.5195e-05
0.000272631
6.53456e-05
0.000301548
7.64843e-05
0.000294374
7.00496e-05
0.000244744
8.12995e-05
0.000291019
8.4805e-05
0.000221389
8.99019e-05
0.00024768
8.07704e-05
0.000248815
7.6468e-05
0.000255254
5.1683e-05
0.000231869
9.45041e-05
0.00019044
0.00016134
0.000135382
0.000243127
0.000127908
0.000383677
0.000165629
0.000546152
0.000325744
0.000760209
0.000561829
0.000995376
0.000915212
0.00127785
0.00147492
0.0016599
0.00233877
0.00211779
0.00385896
0.00245962
0.00576936
0.00290727
0.0419491
0.00101289
0.000294582
0.00239635
0.00018327
0.000362905
0.000147948
0.00022913
0.000110416
0.000230765
0.000124045
0.000229623
8.28052e-05
0.000236644
7.2961e-05
0.000208668
6.58115e-05
0.000207342
4.55481e-05
0.000204639
4.33756e-05
0.000218075
4.31304e-05
0.000200046
4.27205e-05
0.000207751
6.47493e-05
0.000223624
4.84098e-05
0.000183001
5.08504e-05
0.000184307
3.95663e-05
0.000182243
6.65249e-05
0.000194309
9.10657e-05
0.00017687
0.000164247
0.000148897
0.000255035
0.000139768
0.000363989
0.000191024
0.000544781
0.000318319
0.000777084
0.000513936
0.001095
0.000805909
0.00141774
0.0012518
0.00188371
0.00215304
0.00237664
0.00370416
0.00271566
0.00569059
0.00304251
0.0388268
0.000293175
0.00192114
0.000317272
0.00070721
0.000177058
0.000257724
9.15818e-05
0.000336316
0.000132251
0.000304157
8.94786e-05
0.000338852
7.46162e-05
0.000274032
6.47588e-05
0.000260966
8.33084e-05
0.000263804
6.38218e-05
0.000266585
6.98119e-05
0.000268437
6.60051e-05
0.000237996
7.21654e-05
0.000245393
8.16433e-05
0.0002164
8.66299e-05
0.000237917
8.05736e-05
0.000228744
7.46247e-05
0.000247601
5.67687e-05
0.000227556
0.000100036
0.000194343
0.000169274
0.000153908
0.000251756
0.000135312
0.00038656
0.000168562
0.000557226
0.000332821
0.000772943
0.000558247
0.00100552
0.000895875
0.00135647
0.00144544
0.00166656
0.00226857
0.00214277
0.0037383
0.00247808
0.00563965
0.00293319
0.0394582
0.00103593
0.000270415
0.00224501
0.000195751
0.00034483
0.000143415
0.000235558
0.000102561
0.000225284
0.000143616
0.000243534
7.54584e-05
0.00022766
6.04451e-05
0.000194693
5.22942e-05
0.000204497
5.85055e-05
0.000196644
4.15579e-05
0.000208359
4.1219e-05
0.000212316
3.98695e-05
0.00020102
4.48157e-05
0.000216707
6.39515e-05
0.00020567
5.15119e-05
0.000178066
4.95261e-05
0.000183169
3.96162e-05
0.000179554
6.5519e-05
0.000192925
9.65728e-05
0.000184126
0.000169172
0.000158997
0.000264474
0.000145773
0.000373784
0.0001981
0.000552926
0.000320225
0.000790171
0.000519789
0.00110589
0.000809515
0.00143699
0.00124312
0.00190249
0.00209066
0.00241655
0.00358242
0.00275194
0.00556926
0.0030802
0.0364614
0.000275096
0.0017829
0.000328073
0.000660591
0.00018408
0.00024937
9.68528e-05
0.000333006
0.000147306
0.000271771
8.81775e-05
0.000293481
8.47846e-05
0.000297043
6.5425e-05
0.000264348
7.09298e-05
0.000251363
7.80059e-05
0.000236388
6.92915e-05
0.000259008
6.75327e-05
0.00025397
5.8845e-05
0.000239524
7.23376e-05
0.00023619
8.27018e-05
0.000214746
8.58328e-05
0.000228979
8.07725e-05
0.000219545
7.19705e-05
0.000233643
6.11725e-05
0.000221612
0.000102634
0.000196498
0.000178384
0.000163408
0.000263388
0.000139987
0.000391989
0.000175579
0.00057035
0.000332807
0.000794939
0.000556485
0.00101353
0.000888813
0.00135249
0.00140419
0.00168811
0.00220055
0.00217047
0.0036134
0.00250405
0.00550177
0.00299808
0.0369869
0.00105
0.000242303
0.00222443
0.000200706
0.000333416
0.000138764
0.000235493
9.83995e-05
0.000224444
0.00015972
0.000228648
8.76787e-05
0.000210153
5.70564e-05
0.000186363
4.70172e-05
0.000211517
4.4886e-05
0.000194903
4.96211e-05
0.000199162
3.91624e-05
0.0002069
4.14921e-05
0.000214208
4.00261e-05
0.000194839
4.58139e-05
0.000209904
6.09037e-05
0.000203192
5.18673e-05
0.00017913
4.77099e-05
0.000179508
4.25247e-05
0.000176618
6.81077e-05
0.000191284
0.000103871
0.000190961
0.000173765
0.000162597
0.000272861
0.000156035
0.000385769
0.00020837
0.000557709
0.00031927
0.000785383
0.00052412
0.00110428
0.000804032
0.00145606
0.00122568
0.00191364
0.00202849
0.00244687
0.00345738
0.00279475
0.00545695
0.00312561
0.0341286
0.000262484
0.00165882
0.000335127
0.000621855
0.000185416
0.000248873
9.93698e-05
0.00032199
0.000158626
0.000237047
0.0001126
0.000270223
0.000108683
0.000279805
7.87553e-05
0.000278088
5.39236e-05
0.000264123
6.48062e-05
0.00024212
7.44381e-05
0.000228385
6.86508e-05
0.000245
6.60783e-05
0.000244976
5.45301e-05
0.000231289
6.91728e-05
0.000230011
8.08454e-05
0.000215393
8.26712e-05
0.000221651
7.94197e-05
0.000215037
6.97654e-05
0.000225819
6.60429e-05
0.000215873
0.000108667
0.000200422
0.000188194
0.000166602
0.000274094
0.000144146
0.000403911
0.000181042
0.000582651
0.000325379
0.000787421
0.000553472
0.00102143
0.000880702
0.00136119
0.00137506
0.00171025
0.00213648
0.00219154
0.00350775
0.00252795
0.00536647
0.00305621
0.0345459
0.00105603
0.000230438
0.00221322
0.000198255
0.000328969
0.000133499
0.000233595
9.94072e-05
0.000224437
0.000174548
0.000232537
0.00011029
0.000198737
5.7152e-05
0.000162371
4.14444e-05
0.000180551
4.08392e-05
0.000182481
5.06644e-05
0.000188916
4.29759e-05
0.000196729
4.38623e-05
0.000200032
3.92446e-05
0.000193361
4.02372e-05
0.000198233
4.60239e-05
0.000208518
5.98482e-05
0.000194958
5.19687e-05
0.000176318
4.59987e-05
0.000174
4.44217e-05
0.000166188
7.72091e-05
0.00018948
0.000111107
0.000194209
0.000186319
0.000169078
0.000286596
0.000166652
0.000393806
0.000205391
0.000581894
0.000320559
0.00082975
0.000536339
0.00112112
0.00080518
0.00146782
0.00120882
0.00192477
0.00196878
0.00240303
0.00334735
0.0028397
0.0053388
0.00320729
0.0318462
0.000242717
0.00160377
0.000347522
0.000588169
0.000180689
0.000254015
0.000100652
0.000302509
0.000166557
0.000215117
0.000101905
0.000237511
0.000117437
0.000228691
8.38611e-05
0.000257131
7.46078e-05
0.000236114
5.87768e-05
0.000244271
6.73094e-05
0.00023778
6.54604e-05
0.000230493
7.30253e-05
0.000250538
6.36839e-05
0.000245239
5.22146e-05
0.000229323
6.72192e-05
0.000227628
7.85716e-05
0.000214689
7.7522e-05
0.000213428
7.68523e-05
0.000207533
6.69252e-05
0.000217769
6.97251e-05
0.000209512
0.000116925
0.000202213
0.00019451
0.000170997
0.000286841
0.000150048
0.000412858
0.000183058
0.00060597
0.000319451
0.000801217
0.000553065
0.00102364
0.000875485
0.00137745
0.00134447
0.00173112
0.00207427
0.00228962
0.00339999
0.0025575
0.00524887
0.00314223
0.0321947
0.00105915
0.000220534
0.00218831
0.000188704
0.000325153
0.000128689
0.000231745
0.000101159
0.000223882
0.000167098
0.000231863
9.50858e-05
0.000195311
6.41987e-05
0.000194299
4.24315e-05
0.000151829
3.92598e-05
0.000184847
3.6616e-05
0.000167848
4.38491e-05
0.000176642
4.20686e-05
0.000190186
3.96461e-05
0.000198174
3.77171e-05
0.000195434
3.72406e-05
0.000200478
4.5958e-05
0.000204621
5.40266e-05
0.000194168
5.65011e-05
0.000175137
4.71488e-05
0.000175453
4.72949e-05
0.000164969
8.05381e-05
0.000187567
0.000119371
0.000198678
0.000200725
0.000176491
0.000297177
0.000172241
0.00041757
0.000203874
0.000596944
0.00031784
0.000843608
0.000545574
0.00113235
0.000806637
0.00147469
0.001195
0.00194677
0.0019259
0.00240071
0.00324571
0.00289434
0.00522373
0.00330376
0.0296103
0.000222518
0.00155732
0.000364908
0.000558023
0.000174835
0.000254602
0.000102053
0.000284835
0.000173453
0.000203432
9.66263e-05
0.000227147
0.00011895
0.00019867
0.000101562
0.000208284
7.39467e-05
0.00023302
6.4557e-05
0.000213296
6.90723e-05
0.000224495
6.34181e-05
0.000241369
6.17351e-05
0.00022941
7.32254e-05
0.000244337
5.97996e-05
0.000236988
5.39984e-05
0.000231361
6.36271e-05
0.000223415
7.52071e-05
0.000212082
7.27108e-05
0.000205413
7.34157e-05
0.000204073
6.73544e-05
0.000210122
7.56608e-05
0.000208266
0.000125201
0.000205996
0.000201568
0.000176194
0.000295638
0.000156825
0.000425935
0.000182659
0.000626874
0.000310744
0.000821297
0.000550937
0.00103472
0.00087715
0.00139126
0.00131126
0.00175281
0.00199061
0.00230697
0.00331234
0.00259917
0.00511378
0.00326792
0.0298584
0.00105704
0.000219838
0.00215964
0.000181848
0.000319392
0.000126901
0.000231243
0.000100618
0.00021699
0.000146697
0.000233329
8.81321e-05
0.000202518
5.69705e-05
0.00020113
3.73792e-05
0.000174681
4.8595e-05
0.000147275
4.49771e-05
0.000192515
4.14209e-05
0.000175971
4.28627e-05
0.000169418
4.38291e-05
0.000189621
3.91818e-05
0.000201033
3.70368e-05
0.000196892
3.66252e-05
0.000198949
4.41526e-05
0.000202337
5.11394e-05
0.000197917
5.67761e-05
0.000169947
4.63486e-05
0.000167667
4.86289e-05
0.000163559
8.33263e-05
0.000185991
0.000127204
0.00019943
0.000213704
0.000182261
0.000311993
0.000179329
0.000435849
0.000204555
0.000614917
0.000318698
0.00085449
0.000552254
0.00114009
0.00080785
0.00148359
0.00117853
0.00196547
0.00184306
0.00243445
0.00315113
0.00293165
0.00506437
0.00340041
0.0274426
0.000199952
0.00151101
0.000390686
0.000528622
0.000167815
0.000250415
0.000104033
0.000272116
0.000183308
0.000201245
0.000102072
0.000203962
0.000108537
0.000193826
0.000107926
0.00018672
9.25576e-05
0.000192952
6.17871e-05
0.000213789
6.54615e-05
0.000186373
6.31694e-05
0.000213972
6.6405e-05
0.000239458
5.93355e-05
0.000232283
6.84399e-05
0.000239179
5.48249e-05
0.000237687
5.21746e-05
0.000228397
6.23457e-05
0.000219451
7.17644e-05
0.000202141
6.92083e-05
0.000192554
6.98448e-05
0.000187112
6.63458e-05
0.000203352
7.93782e-05
0.000211513
0.0001325
0.000206594
0.000214393
0.000180606
0.000310692
0.000164178
0.00044416
0.000178618
0.000639204
0.000306537
0.000839763
0.000546435
0.0010514
0.000878919
0.00140364
0.00127684
0.00177345
0.0019701
0.00233103
0.00322677
0.00267133
0.00493506
0.00332201
0.0276629
0.00103946
0.000227243
0.0021247
0.000178002
0.00030996
0.000123822
0.000227717
9.99879e-05
0.000206562
0.000125755
0.00022415
8.32873e-05
0.000207661
6.91282e-05
0.00019375
4.74656e-05
0.000133882
3.28643e-05
0.000123607
5.14446e-05
0.000139318
4.13847e-05
0.00016273
3.95296e-05
0.000166979
4.45679e-05
0.000172247
4.68574e-05
0.000187957
4.24416e-05
0.000202826
3.7963e-05
0.000200553
3.73605e-05
0.000203055
4.57255e-05
0.000203241
4.89343e-05
0.000195226
5.4549e-05