/*--------------------------------*- C++ -*----------------------------------*\
| =========                 |                                                 |
| \\      /  F ield         | OpenFOAM: The Open Source CFD Toolbox           |
|  \\    /   O peration     | Version:  2206                                  |
|   \\  /    A nd           | Website:  www.openfoam.com                      |
|    \\/     M anipulation  |                                                 |
\*---------------------------------------------------------------------------*/
FoamFile
{
    version     2.0;
    format      ascii;
    arch        "LSB;label=32;scalar=64";
    class       volScalarField;
    location    "170";
    object      rho;
}
// * * * * * * * * * * * * * * * * * * * * * * * * * * * * * * * * * * * * * //

dimensions      [1 -3 0 0 0 0 0];

internalField   nonuniform List<scalar> 
93840
(
2.12059
0.576492
2.10769
1.30873
0.591734
1.97203
0.716247
1.10589
0.66458
1.77215
1.17147
0.968725
1.09946
0.782162
1.63521
0.989792
1.07781
0.922377
1.19384
0.832923
1.57761
1.069
0.979552
1.09514
0.844466
1.0816
0.801927
1.54958
0.964058
1.05971
0.949196
1.11862
0.892049
1.1537
0.842144
1.57864
1.06914
0.961792
1.06312
1.00583
1.13332
0.863855
1.06366
0.859469
1.56932
0.968455
1.07184
0.964818
1.06843
0.936938
1.13935
0.88498
1.07808
0.875612
1.56137
1.06874
0.973551
1.05312
0.994586
1.13139
0.903647
1.14684
0.955926
1.068
0.891343
1.56062
0.975877
1.06779
0.969217
1.07381
0.956545
1.09618
0.872176
1.06387
0.977332
1.07855
0.899272
1.54792
1.06827
0.965498
1.06759
0.97675
1.06794
0.906473
1.12881
0.939585
1.05765
0.999862
1.07022
0.882209
1.54295
0.979635
1.06824
0.965161
1.05666
1.011
1.09199
0.940021
1.12246
1.00705
1.09635
0.962404
1.0564
0.881077
1.53744
1.06922
0.978411
1.0279
1.00548
1.02775
0.923899
1.09396
0.923987
1.09351
0.994155
1.06821
0.9813
1.07077
0.87394
1.53532
0.983166
1.06409
0.988757
1.03845
0.986201
1.08929
0.94459
1.06358
1.03174
1.06869
1.00887
1.06997
0.9462
1.06999
0.874386
1.53283
1.07146
0.982225
1.0315
0.97694
1.04164
0.92047
1.06679
0.976592
1.07072
0.987517
1.06651
0.987564
1.0756
0.973255
1.08347
0.868137
1.53352
0.984686
1.06322
0.971579
1.0419
0.94344
1.08453
0.973326
1.04509
0.998257
1.03859
1.0127
1.04841
0.97414
1.06913
0.954158
1.07947
0.868157
1.53173
1.07942
0.97054
1.04485
0.969019
1.06314
0.950389
1.06007
0.970965
1.05095
0.972248
1.06745
0.984739
1.07319
0.979998
1.05742
0.957582
1.08344
0.870353
1.52915
0.996484
1.08494
0.948771
1.05118
0.968693
1.07235
0.982179
1.05094
0.989869
1.04156
0.987568
1.03858
0.99271
1.06983
0.981152
1.05514
0.92519
1.0855
0.871434
1.52566
1.07384
0.993745
1.06981
0.993886
1.05505
0.971095
1.05804
0.976581
1.05895
0.973078
1.05355
0.96983
1.07031
0.972611
1.0671
0.967861
1.05806
0.948556
1.08718
0.880998
1.52361
0.994934
1.08119
0.947824
1.0401
0.971591
1.05715
0.975919
1.05407
0.98504
1.03876
0.989558
1.05274
0.986622
1.03756
1.00481
1.05426
0.99345
1.0608
0.940323
1.08818
0.878671
1.52164
1.0748
1.00077
1.07516
1.0008
1.04287
0.952202
1.05469
0.980704
1.05526
0.976748
1.0536
0.988235
1.04735
0.977742
1.07178
0.98484
1.05731
0.974361
1.06213
0.974554
1.08695
0.88619
1.51921
0.995128
1.07434
0.988005
1.02417
0.993602
1.07222
1.00895
1.06373
0.984706
1.0542
0.998448
1.04177
0.991817
1.04386
0.996545
1.03912
1.01797
1.05449
0.964077
1.05191
0.98489
1.08718
0.889692
1.51562
1.07554
1.00634
1.0657
0.998629
1.03853
0.935264
1.04884
0.966914
1.04213
0.992877
1.0549
0.996748
1.04493
0.976042
1.06079
0.967403
1.04765
0.990873
1.05891
0.987867
1.04641
0.986438
1.08375
0.890914
1.51238
0.989572
1.07108
0.998453
1.04475
0.998363
1.07858
1.02015
1.07484
1.01661
1.06531
0.997115
1.05569
0.997091
1.04792
0.984852
1.05102
1.00514
1.04283
0.995784
1.06632
1.00585
1.04593
0.975089
1.08058
0.898285
1.50861
1.0836
0.986815
1.05185
0.960445
1.03427
0.958386
1.05447
0.985117
1.04086
0.980059
1.04778
0.993754
1.05721
0.988915
1.05543
0.980655
1.05792
0.983914
1.04375
0.980597
1.06294
0.998671
1.04326
0.982522
1.07714
0.902132
1.50536
1.00104
1.09197
0.988759
1.04909
0.958341
1.07257
1.00631
1.05416
1.01997
1.06294
1.02111
1.0656
1.00462
1.0554
0.985762
1.05588
0.985427
1.05499
0.988952
1.05089
0.999942
1.05664
1.0013
1.04647
0.977416
1.07413
0.900324
1.50214
1.0729
0.999309
1.07304
0.988619
1.05661
0.990629
1.04794
1.0032
1.05095
0.990033
1.04849
0.989006
1.04376
0.992479
1.06258
0.99595
1.05264
0.975661
1.06033
0.984849
1.04614
1.00888
1.06357
0.998266
1.06167
0.98114
1.07228
0.910497
1.50004
1.0065
1.06594
0.96293
1.04779
0.95353
1.05829
0.998648
1.04717
1.01774
1.04562
1.03141
1.07201
1.02794
1.0775
1.00592
1.05566
0.990172
1.05726
0.980308
1.05765
0.9896
1.04151
1.01283
1.06052
0.993441
1.05991
0.984757
1.07196
0.91548
1.4957
1.05915
1.02425
1.08487
0.977663
1.05788
0.9866
1.03108
1.01407
1.04549
1.01918
1.05811
0.999519
1.05098
0.993497
1.05314
1.00363
1.06393
0.992148
1.05579
0.980346
1.06516
0.996808
1.0379
1.00545
1.06564
0.995741
1.06027
1.00312
1.07463
0.896566
1.49193
0.995019
1.0511
0.986587
1.04171
0.979806
1.058
1.01517
1.0532
1.01985
1.04102
1.02536
1.04145
1.03775
1.07153
1.03293
1.07702
1.00762
1.05595
1.0002
1.06541
0.992524
1.05939
1.00496
1.04791
1.00634
1.07257
1.00018
1.05919
0.999843
1.0874
0.892414
1.48796
1.06472
1.00372
1.07109
1.00233
1.03388
0.968498
1.01882
1.01131
1.01799
1.01687
1.04275
1.01642
1.06103
1.00924
1.05501
0.994397
1.05353
1.01296
1.0628
1.00115
1.0639
0.991588
1.05675
0.995718
1.03958
1.00055
1.07224
1.01365
1.05377
0.992819
1.08289
0.904462
1.48398
0.993174
1.06131
1.00789
1.02164
1.00119
1.0579
1.03329
1.04113
1.03611
1.04147
1.03414
1.03875
1.03445
1.04839
1.03855
1.06899
1.03398
1.07025
1.01664
1.05742
1.00266
1.06431
0.998052
1.05983
1.01084
1.04299
1.00039
1.07537
1.02286
1.05856
0.992543
1.07988
0.903979
1.48027
1.07056
0.996439
1.06391
0.99541
1.02937
0.970296
1.02072
1.0146
1.01101
1.01974
1.02187
1.03217
1.04021
1.02344
1.05203
1.01525
1.05077
1.00291
1.05474
1.01525
1.06815
0.999328
1.05795
0.994654
1.0498
0.995211
1.04348
0.990497
1.06892
1.02283
1.05178
0.996064
1.07567
0.92192
1.47652
0.995231
1.0664
1.00241
1.02848
0.987568
1.0438
1.02949
1.02497
1.03646
1.02627
1.04123
1.03974
1.03843
1.03935
1.04216
1.04552
1.03706
1.06238
1.03621
1.07139
1.01788
1.0595
1.00943
1.06078
1.00194
1.05463
1.00379
1.055
1.0079
1.06488
1.02066
1.05935
0.993623
1.0724
0.91831
1.47304
1.07382
0.99841
1.06494
0.981962
1.02963
0.993447
1.02667
1.0234
1.01047
1.01595
1.01446
1.01783
1.02177
1.02875
1.03403
1.02817
1.04786
1.01695
1.05276
1.0072
1.0518
1.01516
1.06046
1.00773
1.06083
0.994315
1.04804
0.994048
1.05127
1.02087
1.06238
1.01791
1.05331
0.99935
1.07087
0.930529
1.46969
1.0035
1.06534
0.995082
1.04021
0.966148
1.03175
1.02275
1.01122
1.02343
1.01658
1.02938
1.03008
1.0396
1.0367
1.03824
1.04161
1.04458
1.03968
1.03662
1.05891
1.03602
1.07077
1.0342
1.058
1.01363
1.05595
1.00218
1.06111
0.998624
1.04683
1.01672
1.05889
1.01392
1.066
0.995074
1.07545
0.921445
1.4659
1.07771
1.0065
1.04925
0.980527
1.04465
1.01363
1.02688
1.03527
1.01756
1.02837
1.00621
1.02529
1.01644
1.01849
1.02053
1.03205
1.03478
1.02742
1.04743
1.01761
1.05361
1.01288
1.05152
1.01876
1.05561
1.00645
1.05988
1.00154
1.05799
1.00211
1.04016
1.01272
1.0571
1.01207
1.06396
0.991975
1.07831
0.932673
1.46205
1.0173
1.07036
0.984535
1.03838
0.970792
1.02427
1.01974
1.01385
1.01549
1.01072
1.02971
1.01748
1.03264
1.02662
1.03951
1.0373
1.0376
1.03819
1.03998
1.04086
1.03685
1.05336
1.03998
1.06791
1.03721
1.05599
1.02035
1.05612
1.00992
1.06398
1.00841
1.06115
1.01086
1.06944
1.00884
1.07198
0.989596
1.08129
0.92023
1.45847
1.07641
1.02005
1.0584
0.987895
1.05829
1.02516
1.02529
1.04564
1.01704
1.04415
1.01827
1.03216
1.01269
1.02837
1.02173
1.0213
1.02316
1.03287
1.03479
1.02531
1.04127
1.02166
1.04843
1.01773
1.05316
1.0217
1.05705
1.01432
1.05444
1.00535
1.05758
0.997633
1.04836
1.00679
1.05975
1.00475
1.06977
0.985816
1.0789
0.928681
1.45484
1.02438
1.06976
0.969856
1.03479
0.974494
1.01496
1.02559
1.01378
1.01787
1.00821
1.02441
1.01597
1.03274
1.01954
1.02958
1.02913
1.041
1.03577
1.03409
1.03693
1.03696
1.03557
1.03914
1.05115
1.04451
1.06724
1.04273
1.05793
1.02569
1.0566
1.01197
1.06234
1.00929
1.06154
1.00628
1.06752
1.00057
1.08842
0.983101
1.08496
0.916058
1.45129
1.07256
1.02077
1.07525
1.0068
1.06605
1.03366
1.02655
1.04383
1.01238
1.04927
1.01755
1.04234
1.01953
1.03019
1.02295
1.02744
1.01847
1.02146
1.02468
1.03054
1.0312
1.02431
1.04271
1.0262
1.04889
1.02237
1.05371
1.02736
1.0582
1.01786
1.0554
1.00359
1.05772
0.995714
1.05524
0.997481
1.06681
0.996458
1.09064
0.980952
1.09034
0.929685
1.44787
1.02402
1.07622
0.984873
1.03415
0.981355
1.00839
1.02608
1.01364
1.02439
1.01402
1.01532
1.01883
1.0214
1.01992
1.02939
1.01624
1.03321
1.02668
1.0394
1.02871
1.03
1.03875
1.03849
1.03292
1.03984
1.04908
1.04597
1.06307
1.04408
1.0603
1.02698
1.05628
1.01712
1.06285
1.01633
1.05722
1.00549
1.0766
0.997161
1.09178
0.978986
1.09874
0.918686
1.44433
1.06668
1.01711
1.0764
1.01629
1.06236
1.04012
1.02489
1.04195
1.01565
1.03653
1.01934
1.04733
1.01846
1.04205
1.01755
1.03406
1.02348
1.02514
1.02022
1.02353
1.02503
1.02838
1.02989
1.02674
1.03856
1.02637
1.0467
1.02603
1.05369
1.02896
1.05839
1.01816
1.05795
1.0079
1.05702
1.00008
1.05982
0.990529
1.07863
0.989431
1.09848
0.976858
1.09883
0.933602
1.44078
1.01657
1.08448
0.995199
1.03344
0.991005
1.00782
1.02704
1.01285
1.02535
1.01084
1.01238
1.01024
1.01171
1.02308
1.02297
1.017
1.03136
1.01894
1.03575
1.02366
1.02949
1.02668
1.03101
1.03472
1.03596
1.0348
1.04471
1.05099
1.04902
1.06082
1.04274
1.05532
1.0318
1.05784
1.02154
1.06455
1.01022
1.06259
1.0056
1.07936
0.996704
1.09988
0.975715
1.09931
0.92005
1.43725
1.0671
1.02275
1.07243
1.0177
1.05341
1.03837
1.01772
1.03653
1.01515
1.02745
1.01087
1.03629
1.0148
1.04402
1.02147
1.03182
1.02547
1.02951
1.02474
1.02071
1.02161
1.02499
1.02245
1.02907
1.02925
1.02815
1.03513
1.02725
1.04672
1.02538
1.05349
1.02916
1.05452
1.01669
1.05836
1.00851
1.05896
1.00383
1.06557
0.988915
1.08084
0.984019
1.10403
0.975269
1.10176
0.93602
1.43355
1.01052
1.08109
1.0002
1.02893
1.00227
1.00751
1.02713
1.01653
1.02908
1.01235
1.01266
1.01238
1.01313
1.0098
1.01834
1.02445
1.02379
1.02248
1.02949
1.02341
1.03463
1.01992
1.03044
1.02307
1.03126
1.03175
1.03477
1.03058
1.0443
1.04504
1.05038
1.06131
1.04823
1.06124
1.03211
1.05782
1.02371
1.0664
1.00429
1.06662
1.00052
1.09032
0.992995
1.10709
0.981127
1.1023
0.923121
1.42974
1.07066
1.03312
1.06653
1.00567
1.04445
1.03053
1.01026
1.03161
1.01574
1.01922
1.00878
1.03553
1.01227
1.03776
1.01509
1.03909
1.02097
1.03209
1.0202
1.03026
1.02431
1.02426
1.02342
1.02636
1.02056
1.02827
1.0289
1.02921
1.03665
1.03034
1.04395
1.03175
1.05263
1.02556
1.05191
1.02341
1.05912
1.01001
1.06073
1.00934
1.06759
0.991846
1.08845
0.989625
1.11191
0.971639
1.09938
0.93969
1.42603
1.01176
1.07044
0.993077
1.02794
1.01844
1.00566
1.03103
1.01782
1.03247
1.01351
1.02953
1.01251
1.01473
1.01228
1.01735
1.01709
1.01575
1.02071
1.02292
1.02256
1.02504
1.02217
1.02703
1.02143
1.03365
1.02142
1.02935
1.02968
1.03439
1.0297
1.04086
1.03997
1.05262
1.05996
1.04813
1.05731
1.03291
1.05937
1.02451
1.0652
0.998408
1.06958
0.999464
1.08415
0.996597
1.10624
0.974537
1.10607
0.924955
1.42196
1.07038
1.03819
1.0698
0.989169
1.04026
1.01887
1.00609
1.02576
1.01537
1.01921
1.01265
1.02831
1.01491
1.03559
1.00906
1.02585
1.02176
1.03517
1.01917
1.03083
1.02237
1.03197
1.02292
1.02398
1.02405
1.02588
1.02122
1.02874
1.02753
1.03067
1.0363
1.02809
1.04053
1.03344
1.05205
1.02926
1.05455
1.02419
1.05946
1.01578
1.06271
1.01373
1.06606
0.998493
1.08135
1.00557
1.11252
0.970771
1.10647
0.941752
1.41803
1.01541
1.06009
0.997809
1.04063
1.03274
0.998172
1.03221
1.01789
1.03016
1.01658
1.03336
1.01325
1.02502
1.01411
1.01384
1.02359
1.01807
1.01867
1.01488
1.02071
1.02186
1.02019
1.02713
1.0204
1.03308
1.01783
1.03402
1.02297
1.03313
1.0274
1.03665
1.03001
1.04156
1.04091
1.04915
1.05777
1.04382
1.05697
1.03471
1.05892
1.02526
1.05907
1.01407
1.06798
1.00621
1.07908
0.999676
1.11345
0.971241
1.10917
0.929737
1.41397
1.06616
1.03686
1.06815
0.982854
1.03932
1.01005
1.01179
1.02494
1.01642
1.02014
1.01258
1.02319
1.01206
1.02726
1.01618
1.03051
1.00775
1.03408
1.0168
1.03153
1.01875
1.03123
1.02476
1.0291
1.02005
1.02618
1.02165
1.02389
1.01868
1.0309
1.03019
1.03204
1.038
1.03011
1.04206
1.03437
1.05202
1.03398
1.05529
1.02673
1.0577
1.0187
1.05571
1.01328
1.06327
1.0116
1.07757
0.997179
1.1162
0.968011
1.11082
0.944543
1.41025
1.01459
1.05141
1.0094
1.04932
1.03869
0.988495
1.03284
1.01396
1.02848
1.01531
1.03734
1.02036
1.03333
1.02028
1.02295
1.01221
1.0158
1.02134
1.01887
1.02002
1.01839
1.02344
1.02229
1.01798
1.02487
1.02103
1.02854
1.01602
1.02927
1.02129
1.0342
1.02509
1.03736
1.03142
1.04453
1.03955
1.0482
1.05437
1.04794
1.05785
1.03853
1.05866
1.03247
1.05924
1.02064
1.05903
1.02188
1.08583
0.993591
1.11016
0.975639
1.11192
0.934131
1.40643
1.06549
1.03068
1.06381
0.988513
1.0345
1.00534
1.02312
1.02566
1.02266
1.02352
1.01969
1.02388
1.02036
1.02671
1.01722
1.02939
1.01498
1.03471
1.01164
1.02645
1.01813
1.03201
1.01434
1.03561
1.02302
1.0322
1.02265
1.02662
1.01908
1.02816
1.02044
1.03092
1.02866
1.03411
1.03257
1.03439
1.04112
1.03593
1.05167
1.0362
1.05611
1.03116
1.0543
1.02633
1.05837
1.02306
1.05624
1.00666
1.08137
0.994348
1.1241
0.972022
1.11258
0.947585
1.40305
1.01745
1.04771
1.01492
1.0487
1.03643
0.983021
1.03309
1.00988
1.02613
1.01428
1.03409
1.0225
1.03439
1.02102
1.0347
1.0185
1.02569
1.01336
1.0158
1.01889
1.0215
1.01713
1.01949
1.0218
1.02627
1.0186
1.02407
1.01801
1.03123
1.02031
1.03021
1.02109
1.03416
1.02641
1.0361
1.02891
1.04743
1.04034
1.0486
1.05191
1.04883
1.05547
1.03688
1.05773
1.03149
1.05649
1.02571
1.06211
1.0201
1.089
0.996686
1.1103
0.979185
1.11483
0.93809
1.39927
1.0633
1.02423
1.05381
1.00326
1.03468
1.0129
1.03295
1.02521
1.02681
1.02715
1.0272
1.02342
1.0194
1.02383
1.01897
1.0243
1.01967
1.03188
1.01671
1.03093
1.01202
1.02753
1.01571
1.03536
1.01112
1.03282
1.02417
1.02911
1.01977
1.02439
1.01494
1.02994
1.0179
1.03156
1.02538
1.03559
1.03639
1.03296
1.04069
1.03731
1.05111
1.03806
1.05403
1.03451
1.05644
1.02913
1.05379
1.02002
1.05782
1.00423
1.0858
0.991864
1.13127
0.971187
1.11381
0.952154
1.39604
1.02343
1.04641
1.01188
1.04684
1.02866
0.97633
1.0268
1.00188
1.02338
1.00703
1.03043
1.01525
1.02991
1.01864
1.02909
1.01876
1.0314
1.01711
1.0268
1.01727
1.01917
1.01968
1.01996
1.01676
1.02405
1.02324
1.03433
1.01897
1.02574
1.02181
1.02839
1.02023
1.03268
1.0192
1.03438
1.02514
1.03754
1.02943
1.0456
1.0425
1.05082
1.04998
1.05072
1.05437
1.04317
1.05393
1.03338
1.06021
1.02863
1.06285
1.01846
1.09247
1.00016
1.10657
0.973775
1.11507
0.946214
1.39229
1.06019
1.02185
1.0515
1.01504
1.03189
1.02349
1.03965
1.02558
1.02688
1.02726
1.03292
1.02074
1.02516
1.02137
1.02147
1.0219
1.01731
1.02471
1.01601
1.03023
1.01991
1.02762
1.01309
1.02137
1.01484
1.03454
1.01426
1.02861
1.02768
1.03039
1.02021
1.02415
1.01596
1.03093
1.02115
1.03257
1.02213
1.03373
1.03611
1.03406
1.04147
1.03843
1.05138
1.03778
1.05416
1.03448
1.05865
1.02832
1.05461
1.02051
1.0576
1.01097
1.08902
0.998316
1.12887
0.984072
1.11413
0.957001
1.38882
1.02644
1.04725
1.00739
1.04296
1.0223
0.978872
1.02528
0.996926
1.02043
1.0038
1.0216
1.00969
1.02703
1.01745
1.02292
1.01932
1.02707
1.01948
1.03107
1.01912
1.02388
1.02025
1.02162
1.021
1.01779
1.02001
1.02549
1.02157
1.03315
1.01917
1.02429
1.01919
1.02943
1.01888
1.03395
1.0198
1.03575
1.02654
1.03544
1.03092
1.04642
1.04176
1.05099
1.04845
1.05056
1.05159
1.04364
1.05462
1.03569
1.06431
1.02886
1.06587
1.01663
1.09387
1.00866
1.10629
0.97909
1.11908
0.945617
1.38508
1.05772
1.02035
1.05204
1.02694
1.03259
1.03145
1.03857
1.02047
1.02492
1.021
1.03771
1.02143
1.02908
1.02636
1.0258
1.02137
1.02115
1.02374
1.02048
1.02388
1.01687
1.02898
1.01752
1.02559
1.01207
1.03062
1.01911
1.03476
1.01759
1.02976
1.02965
1.03046
1.02203
1.02381
1.01559
1.03079
1.01958
1.03271
1.02255
1.03398
1.03218
1.03455
1.04079
1.03819
1.05028
1.04202
1.05292
1.03518
1.05658
1.02746
1.0556
1.02037
1.0596
1.01284
1.09066
1.0013
1.13077
0.986436
1.11479
0.964631
1.38161
1.02582
1.04973
1.01028
1.04526
1.01758
0.986831
1.02425
0.993734
1.02079
1.00695
1.01537
1.00896
1.0269
1.02211
1.02568
1.01859
1.02186
1.01676
1.026
1.01821
1.02797
1.02149
1.02137
1.02036
1.01916
1.02249
1.02004
1.02177
1.02524
1.02292
1.03298
1.02095
1.02587
1.01562
1.02974
1.01799
1.03016
1.01858
1.03627
1.02475
1.03707
1.03196
1.04565
1.04072
1.05218
1.04818
1.05078
1.05159
1.04546
1.05726
1.03426
1.06489
1.02843
1.06846
1.01497
1.08911
1.01519
1.10656
0.988756
1.11982
0.95803
1.37786
1.0573
1.02471
1.04957
1.04029
1.0316
1.03318
1.03218
1.01442
1.02164
1.0147
1.03057
1.02198
1.03421
1.02135
1.02831
1.02763
1.02391
1.02284
1.02117
1.02475
1.02203
1.02508
1.01984
1.02718
1.01786
1.02672
1.01286
1.03047
1.01692
1.0359
1.02036
1.03121
1.03226
1.03111
1.02806
1.02556
1.02031
1.03237
1.01975
1.0298
1.0199
1.03525
1.03417
1.03362
1.03976
1.04099
1.0484
1.04232
1.0527
1.03425
1.05539
1.03216
1.06038
1.02359
1.05932
1.01904
1.09026
1.00584
1.12519
0.98272
1.11471
0.969929
1.37409
1.02393
1.04976
1.00573
1.04585
1.0127
0.996475
1.02339
0.99436
1.02172
1.00875
1.01636
1.01144
1.02307
1.01631
1.032
1.02359
1.02193
1.01868
1.02234
1.01664
1.0265
1.01962
1.02538
1.01923
1.02063
1.01857
1.01788
1.02353
1.01932
1.02273
1.02541
1.0266
1.03329
1.02163
1.02844
1.01782
1.03091
1.01795
1.03244
1.02084
1.03686
1.02456
1.03579
1.02881
1.04488
1.04032
1.05388
1.04764
1.05232
1.05098
1.04909
1.0568
1.0388
1.06342
1.0313
1.06843
1.01729
1.09015
1.01652
1.1075
0.997129
1.12267
0.954763
1.36993
1.05666
1.02687
1.05155
1.04855
1.03013
1.03241
1.02515
1.01026
1.01639
1.01023
1.0253
1.01737
1.03224
1.02537
1.0355
1.02222
1.02942
1.02887
1.02394
1.02325
1.02106
1.02524
1.02116
1.02495
1.01962
1.02581
1.01942
1.0264
1.01523
1.02661
1.01571
1.03251
1.02127
1.03152
1.03086
1.03026
1.0262
1.02449
1.02159
1.02864
1.01915
1.02833
1.02312
1.03505
1.03505
1.03493
1.03919
1.04375
1.04763
1.04504
1.05267
1.03724
1.05647
1.03482
1.06055
1.02752
1.05972
1.01788
1.08902
1.01261
1.12248
0.986153
1.11382
0.976629
1.36595
1.02598
1.04994
1.0061
1.04649
1.01221
1.00616
1.02196
0.996957
1.02157
1.01343
1.01752
1.01211
1.01896
1.01562
1.01865
1.02041
1.02808
1.02535
1.02162
1.01978
1.02115
1.01647
1.02558
1.01854
1.02422
1.02131
1.02032
1.0187
1.01747
1.0225
1.02259
1.02292
1.02376
1.03132
1.03534
1.02196
1.03134
1.01853
1.03031
1.01825
1.03471
1.0199
1.03706
1.02216
1.03687
1.02743
1.04548
1.04
1.05507
1.04755
1.05273
1.04987
1.04615
1.0592
1.04317
1.06328
1.03654
1.06751
1.02415
1.08891
1.02413
1.11527
1.00924
1.12328
0.96778
1.36163
1.05605
1.03027
1.05483
1.04926
1.02702
1.03306
1.01572
1.00613
1.01193
1.00711
1.02027
1.00989
1.02864
1.01781
1.02845
1.02021
1.03069
1.02693
1.02709
1.02536
1.02176
1.02543
1.02259
1.02319
1.02296
1.0236
1.02154
1.02421
1.01751
1.02352
1.01484
1.02354
1.01406
1.0313
1.02109
1.03088
1.02974
1.03225
1.02503
1.02635
1.02275
1.02484
1.02238
1.02914
1.02319
1.03605
1.03238
1.03944
1.04185
1.04504
1.04874
1.04542
1.05385
1.03583
1.0552
1.03686
1.05878
1.03106
1.06031
1.02423
1.08765
1.01475
1.11825
0.981137
1.11465
0.985549
1.35754
1.02479
1.04586
1.01124
1.0436
1.01588
1.01218
1.01855
1.00161
1.0221
1.01893
1.01855
1.01443
1.01946
1.01165
1.014
1.02026
1.02328
1.02269
1.02654
1.02274
1.02326
1.01984
1.01994
1.01839
1.02304
1.0197
1.02423
1.02094
1.0219
1.02013
1.01655
1.01979
1.02206
1.0239
1.0242
1.03098
1.03293
1.02144
1.0332
1.01822
1.02977
1.0175
1.03347
1.01945
1.03389
1.02173
1.03456
1.02773
1.04184
1.04013
1.05154
1.04681
1.05417
1.05017
1.04599
1.05915
1.04432
1.0623
1.03987
1.06697
1.02808
1.08559
1.03882
1.11266
1.01608
1.12524
0.969589
1.35322
1.05318
1.02885
1.05285
1.04666
1.02305
1.03307
1.00915
1.00817
1.00981
1.00597
1.01329
1.00793
1.0214
1.01081
1.02375
1.02044
1.02453
1.02269
1.02685
1.02414
1.0288
1.02391
1.02328
1.02452
1.0216
1.02311
1.02455
1.0214
1.02026
1.02281
1.01738
1.01976
1.01796
1.02176
1.01251
1.03092
1.02247
1.02989
1.03082
1.03358
1.02192
1.02539
1.02295
1.02524
1.02189
1.03011
1.02406
1.03481
1.03147
1.03971
1.04223
1.04626
1.04776
1.04692
1.05147
1.03843
1.05725
1.03657
1.06006
1.03354
1.05942
1.02876
1.08622
1.02234
1.12352
0.984904
1.11521
0.986237
1.34937
1.02507
1.04514
1.01581
1.03786
1.02434
1.01765
1.01606
1.00579
1.01809
1.02111
1.01854
1.01914
1.01935
1.00917
1.01807
1.00952
1.01999
1.01853
1.02417
1.02436
1.02431
1.02197
1.02078
1.01937
1.01843
1.0221
1.02168
1.01844
1.02187
1.02083
1.02204
1.01906
1.01872
1.01981
1.0195
1.02641
1.02309
1.03098
1.03371
1.02088
1.03381
1.01975
1.03056
1.01847
1.02853
1.02003
1.03295
1.0242
1.03471
1.03018
1.04413
1.04117
1.05455
1.04585
1.05317
1.04892
1.0474
1.05819
1.04685
1.06259
1.04257
1.06633
1.03725
1.08504
1.04038
1.11616
1.0254
1.12691
0.980432
1.34517
1.04991
1.02917
1.0506
1.03776
1.02217
1.02916
1.00639
1.01121
1.00782
1.00656
1.01185
1.00681
1.01155
1.00665
1.01873
1.01188
1.02129
1.01613
1.02257
1.02213
1.02486
1.02358
1.02607
1.02234
1.02325
1.02559
1.0224
1.02391
1.02252
1.02116
1.01921
1.02159
1.01814
1.01865
1.01622
1.02261
1.015
1.03246
1.02374
1.03046
1.02801
1.03375
1.02229
1.02531
1.02399
1.02485
1.01878
1.03032
1.02404
1.03504
1.0309
1.03674
1.03852
1.04394
1.04603
1.04868
1.05078
1.04244
1.05703
1.0371
1.0586
1.03774
1.05988
1.03339
1.08441
1.02365
1.11552
0.988413
1.1122
0.997529
1.34143
1.02496
1.04004
1.017
1.0338
1.03467
1.01963
1.01633
1.01022
1.01411
1.02342
1.0181
1.02102
1.023
1.01718
1.02205
1.01053
1.01752
1.00915
1.02376
1.02004
1.02309
1.02488
1.02276
1.02255
1.02252
1.01775
1.02039
1.0235
1.0192
1.01839
1.02019
1.0201
1.02205
1.01971
1.01941
1.01905
1.02047
1.02589
1.02257
1.02797
1.03354
1.02368
1.03208
1.02106
1.02938
1.01752
1.027
1.02296
1.03006
1.02397
1.033
1.02853
1.04234
1.04193
1.05442
1.0462
1.05304
1.04942
1.04885
1.05823
1.05144
1.06023
1.04335
1.06693
1.03886
1.0885
1.04492
1.10451
1.03383
1.12653
0.987642
1.33701
1.04809
1.02654
1.04891
1.02851
1.02482
1.02391
1.00486
1.0138
1.0068
1.00909
1.00944
1.01177
1.01023
1.00843
1.01429
1.0087
1.02094
1.01376
1.02041
1.01801
1.0216
1.02092
1.02648
1.02273
1.02501
1.0218
1.02293
1.02444
1.02317
1.0241
1.02251
1.01945
1.01972
1.02218
1.01797
1.01873
1.01525
1.02107
1.01603
1.03275
1.02454
1.03047
1.02792
1.03301
1.02437
1.02362
1.02191
1.02652
1.02043
1.02996
1.02307
1.0336
1.02952
1.03671
1.03922
1.04688
1.04654
1.04746
1.05031
1.0422
1.05497
1.04224
1.05936
1.04197
1.06138
1.04139
1.08358
1.03084
1.1199
0.998581
1.11728
0.997943
1.33317
1.02987
1.04161
1.01667
1.03522
1.04323
1.0171
1.01751
1.01315
1.01023
1.02758
1.01736
1.02275
1.02239
1.02021
1.02349
1.0159
1.01905
1.00907
1.0177
1.01227
1.01836
1.01912
1.0242
1.02376
1.02119
1.02302
1.02028
1.01954
1.01941
1.02316
1.01888
1.01787
1.02001
1.01803
1.01942
1.01952
1.01776
1.01886
1.01907
1.02483
1.02394
1.02922
1.03312
1.02508
1.03243
1.02099
1.02793
1.01567
1.02663
1.0228
1.0294
1.02593
1.03306
1.0306
1.04075
1.03914
1.05613
1.04365
1.05125
1.04717
1.05044
1.05811
1.05463
1.06164
1.04677
1.0658
1.04477
1.0867
1.04891
1.10809
1.03259
1.12952
0.99268
1.32853
1.04078
1.02773
1.04813
1.02354
1.02988
1.0205
1.00721
1.01678
1.00729
1.01607
1.00473
1.01923
1.00894
1.01265
1.01174
1.01202
1.01134
1.00863
1.01527
1.01502
1.02097
1.0141
1.0216
1.01891
1.02483
1.02131
1.0216
1.01889
1.02217
1.02154
1.02296
1.02158
1.02172
1.02027
1.01978
1.02152
1.01934
1.01955
1.01506
1.02396
1.01892
1.03091
1.02372
1.02982
1.0297
1.03091
1.02721
1.02512
1.02112
1.02537
1.0207
1.02884
1.02244
1.03311
1.0289
1.03805
1.03789
1.04723
1.04669
1.05078
1.05056
1.04186
1.05455
1.04592
1.05828
1.04398
1.05968
1.04651
1.08657
1.03638
1.11967
1.00038
1.11369
1.00702
1.32401
1.02891
1.03483
1.01602
1.03782
1.04638
1.01094
1.02062
1.01583
1.00855
1.02845
1.0189
1.02352
1.0234
1.02053
1.02226
1.01699
1.01602
1.01595
1.01825
1.01318
1.01364
1.01229
1.024
1.01845
1.02303
1.02334
1.01987
1.02054
1.02006
1.02121
1.01828
1.02309
1.01977
1.01812
1.02034
1.01808
1.01917
1.01687
1.01472
1.02049
1.02131
1.02499
1.02379
1.02861
1.0329
1.02809
1.03164
1.02139
1.02709
1.01583
1.02622
1.0211
1.02941
1.02275
1.03198
1.02734
1.03717
1.04007
1.05764
1.04245
1.05169
1.0484
1.05357
1.05645
1.05428
1.06416
1.05077
1.06545
1.04619
1.088
1.05005
1.10663
1.04651
1.12431
1.00405
1.31891
1.0299
1.02293
1.0463
1.02379
1.0354
1.01631
1.01365
1.0182
1.00833
1.02086
1.00583
1.02264
1.01253
1.01606
1.0133
1.01261
1.01479
1.01477
1.00903
1.01016
1.01727
1.01783
1.0199
1.01437
1.02114
1.01766
1.02371
1.01929
1.02196
1.01938
1.02178
1.02092
1.0206
1.02147
1.02114
1.02061
1.02083
1.01903
1.02008
1.02086
1.01398
1.0219
1.02063
1.03086
1.0249
1.03085
1.03114
1.02925
1.02706
1.02407
1.02055
1.02506
1.0205
1.03044
1.02296
1.03404
1.03013
1.04031
1.03752
1.04589
1.04596
1.0509
1.0506
1.04513
1.05563
1.04728
1.06022
1.04848
1.06018
1.04562
1.08577
1.03712
1.11763
1.00303
1.11521
1.01758
1.31418
1.02611
1.03464
1.00987
1.03783
1.04624
1.0052
1.02396
1.01811
1.00425
1.02795
1.02152
1.02349
1.02033
1.02159
1.02053
1.01881
1.01816
1.01343
1.01635
1.01469
1.01634
1.01172
1.01154
1.01342
1.02133
1.0181
1.02012
1.02168
1.01893
1.0215
1.0175
1.02083
1.01812
1.02337
1.01913
1.01859
1.0198
1.017
1.01869
1.01806
1.01364
1.0194
1.01986
1.02533
1.02156
1.02843
1.03212
1.02843
1.03085
1.02224
1.02611
1.01519
1.02519
1.01901
1.02956
1.02306
1.03287
1.02627
1.03945
1.03992
1.05835
1.04641
1.05152
1.045
1.05286
1.05602
1.05605
1.06366
1.05381
1.06198
1.05282
1.08474
1.06308
1.10942
1.05052
1.12549
1.00242
1.30891
1.02889
1.02278
1.05635
1.02762
1.03714
1.01353
1.02064
1.01874
1.00905
1.02681
1.00796
1.02207
1.01615
1.02098
1.0141
1.01607
1.01652
1.01644
1.01523
1.01342
1.01052
1.01291
1.01586
1.0169
1.0195
1.01528
1.02035
1.0177
1.02388
1.01963
1.02039
1.01971
1.02013
1.0205
1.02117
1.02125
1.02129
1.02059
1.02114
1.01778
1.01675
1.02096
1.01535
1.02365
1.01908
1.03225
1.02548
1.03023
1.03058
1.02997
1.02777
1.02517
1.0204
1.02371
1.01877
1.02693
1.02161
1.0318
1.02947
1.03825
1.03736
1.04686
1.04353
1.04913
1.05076
1.04772
1.05381
1.04898
1.06178
1.05105
1.06286
1.05104
1.08202
1.04767
1.11357
1.01663
1.11299
1.01961
1.30384
1.0202
1.02603
1.01183
1.03627
1.0428
1.00129
1.02813
1.01847
1.00334
1.02716
1.01965
1.02301
1.01992
1.0209
1.01857
1.02225
1.01882
1.01549
1.01804
1.01371
1.01718
1.01594
1.01284
1.01292
1.0095
1.01353
1.0159
1.01835
1.01954
1.02128
1.01732
1.02204
1.01702
1.01968
1.01755
1.02143
1.02026
1.01852
1.0198
1.01627
1.01826
1.01842
1.01449
1.01936
1.01919
1.02622
1.02186
1.02802
1.03217
1.02812
1.03076
1.02216
1.02427
1.01652
1.02412
1.01929
1.02759
1.02102
1.03036
1.02824
1.04301
1.04078
1.05756
1.04697
1.05182
1.04306
1.05173
1.05565
1.05867
1.06437
1.05849
1.06198
1.05822
1.08472
1.07038
1.11018
1.0521
1.12625
1.01726
1.29823
1.02466
1.02312
1.06576
1.03183
1.03885
1.01271
1.02565
1.01906
1.0105
1.03033
1.009
1.02335
1.01677
1.02165
1.01687
1.01959
1.01368
1.01643
1.01595
1.01505
1.01541
1.01451
1.0117
1.01564
1.01244
1.01552
1.01843
1.01315
1.01944
1.01842
1.02105
1.01992
1.0192
1.0191
1.01946
1.02068
1.02183
1.02178
1.02015
1.02021
1.0204
1.01751
1.01604
1.01856
1.01599
1.0241
1.02164
1.03011
1.02562
1.03013
1.03174
1.02859
1.02669
1.02302
1.01956
1.02349
1.01852
1.02667
1.01998
1.02862
1.02784
1.03634
1.03641
1.04807
1.0441
1.04925
1.05003
1.04839
1.05367
1.05233
1.06248
1.05491
1.0607
1.05796
1.08066
1.05316
1.10806
1.02676
1.1181
1.03029
1.29304
1.01662
1.02374
1.01069
1.03558
1.03972
0.999609
1.03124
1.01882
1.00403
1.02486
1.01708
1.02368
1.01603
1.02274
1.02209
1.01909
1.01961
1.02068
1.01842
1.01725
1.0189
1.01621
1.01428
1.01267
1.01006
1.01369
1.01428
1.01247
1.01926
1.01885
1.0173
1.02057
1.01748
1.0215
1.01655
1.0196
1.0173
1.01947
1.01977
1.01859
1.01956
1.0154
1.01853
1.01775
1.01579
1.01806
1.02006
1.02805
1.0224
1.02907
1.03077
1.02783
1.0293
1.02265
1.02276
1.01595
1.02499
1.01802
1.02664
1.02154
1.03152
1.02769
1.0438
1.04254
1.05568
1.04611
1.04995
1.04185
1.05454
1.05607
1.06104
1.06391
1.05767
1.06494
1.06164
1.08368
1.0753
1.1047
1.06393
1.12741
1.02237
1.28715
1.02712
1.0143
1.07356
1.03721
1.03712
1.01164
1.02784
1.01947
1.0098
1.03288
1.0111
1.02357
1.01518
1.0223
1.01701
1.02178
1.01723
1.02137
1.01504
1.02048
1.01598
1.01647
1.01452
1.01253
1.0127
1.0148
1.01077
1.0117
1.01808
1.01513
1.01908
1.01492
1.02075
1.01757
1.01873
1.01794
1.01889
1.02089
1.02159
1.02104
1.01948
1.01955
1.02055
1.01741
1.01603
1.01926
1.01767
1.02202
1.02019
1.02955
1.02424
1.02975
1.03196
1.02799
1.02586
1.02159
1.01927
1.02169
1.01897
1.0261
1.01882
1.02989
1.03033
1.0364
1.03681
1.04895
1.04349
1.048
1.04698
1.04943
1.05442
1.05427
1.06067
1.05853
1.06185
1.06379
1.0794
1.05954
1.10413
1.02813
1.11643
1.03255
1.28169
1.01251
1.03489
1.01381
1.03393
1.03641
0.999899
1.03304
1.01901
1.00629
1.02442
1.01528
1.02068
1.01614
1.02151
1.02056
1.0215
1.02042
1.0182
1.01977
1.02145
1.01904
1.01775
1.01717
1.01733
1.01663
1.01261
1.01425
1.01451
1.00913
1.01381
1.01743
1.01946
1.02108
1.01925
1.01822
1.01963
1.01575
1.01815
1.0148
1.01998
1.01913
1.01736
1.01983
1.01577
1.01775
1.01665
1.01561
1.01643
1.01949
1.028
1.02438
1.02886
1.03068
1.02909
1.02806
1.02302
1.02189
1.0157
1.02682
1.01768
1.02554
1.02257
1.02927
1.0265
1.04487
1.04238
1.04911
1.04841
1.04951
1.04292
1.05445
1.05494
1.06209
1.06336
1.05651
1.06446
1.05959
1.07952
1.07942
1.10523
1.05749
1.12564
1.0283
1.27557
1.02311
1.01344
1.07739
1.04284
1.03395
1.0117
1.02899
1.01959
1.00934
1.03236
1.01206
1.02122
1.01886
1.01971
1.01858
1.02106
1.01904
1.01874
1.02212
1.01804
1.01702
1.01771
1.01773
1.01501
1.01185
1.01114
1.01231
1.01363
1.01188
1.01381
1.01564
1.01622
1.01816
1.0162
1.02098
1.01585
1.01885
1.01776
1.01805
1.02317
1.02087
1.01971
1.02009
1.01854
1.01929
1.01833
1.01543
1.01818
1.01656
1.02211
1.02124
1.02933
1.02626
1.02965
1.03228
1.02697
1.02418
1.01931
1.02164
1.02335
1.017
1.02575
1.02027
1.03019
1.0318
1.03659
1.03802
1.05028
1.04241
1.04823
1.04238
1.05158
1.05471
1.05375