/*--------------------------------*- C++ -*----------------------------------*\
| =========                 |                                                 |
| \\      /  F ield         | OpenFOAM: The Open Source CFD Toolbox           |
|  \\    /   O peration     | Version:  2206                                  |
|   \\  /    A nd           | Website:  www.openfoam.com                      |
|    \\/     M anipulation  |                                                 |
\*---------------------------------------------------------------------------*/
FoamFile
{
    version     2.0;
    format      ascii;
    arch        "LSB;label=32;scalar=64";
    class       volScalarField;
    location    "170";
    object      rhoMean;
}
// * * * * * * * * * * * * * * * * * * * * * * * * * * * * * * * * * * * * * //

dimensions      [1 -3 0 0 0 0 0];

internalField   nonuniform List<scalar> 
93840
(
2.02247
0.649584
1.87299
1.31792
0.709896
1.66816
0.771891
1.17122
0.742924
1.51467
1.15959
0.964794
1.17377
0.83393
1.38059
0.982812
1.12859
0.952764
1.18291
0.889712
1.25026
1.06955
0.943611
1.1469
0.926497
1.12844
0.948971
1.19361
0.967123
1.09647
0.945308
1.12001
0.942382
1.10698
0.984977
1.14366
1.06848
0.932362
1.10956
0.984899
1.10851
0.988128
1.10374
0.99598
1.14576
0.967259
1.08087
0.944906
1.06866
0.957022
1.10111
0.983044
1.08151
0.988732
1.0928
1.06999
0.956776
1.09846
0.982239
1.09525
0.995345
1.07767
1.00464
1.08083
1.00687
1.12573
0.970974
1.0729
0.958026
1.06774
0.976399
1.07808
0.986675
1.07231
1.00327
1.06189
1.00174
1.09118
1.06457
0.957626
1.08102
0.997454
1.08323
1.00215
1.06173
1.01896
1.05094
1.01547
1.06675
1.00976
1.11338
0.973028
1.06742
0.962243
1.05663
0.977909
1.06253
1.0025
1.06359
1.00548
1.05896
1.00751
1.06315
1.00565
1.07621
1.06684
0.961119
1.07001
0.999031
1.06855
1.00629
1.05831
1.02364
1.04735
1.0237
1.04244
1.00982
1.06446
1.01345
1.10524
0.975933
1.06882
0.966135
1.04466
0.978357
1.05019
1.00495
1.0448
1.01018
1.05673
1.00656
1.05617
1.0108
1.05842
1.00856
1.06496
1.06748
0.965841
1.06439
1.00039
1.05582
1.00951
1.04836
1.01771
1.04619
1.02592
1.04217
1.02159
1.04093
1.00871
1.0638
1.01672
1.09597
0.97918
1.06662
0.971719
1.04113
0.986511
1.04365
1.00776
1.03527
1.00824
1.04027
1.00995
1.0521
1.00959
1.0518
1.01282
1.05564
1.011
1.05527
1.0673
0.96923
1.05961
1.00526
1.05112
1.01808
1.04649
1.01876
1.04238
1.01835
1.04107
1.02855
1.039
1.02011
1.04177
1.00931
1.06181
1.01921
1.08816
0.979875
1.067
0.977922
1.03806
0.994609
1.04016
1.01446
1.03576
1.01071
1.03175
1.0092
1.03748
1.01151
1.04905
1.01154
1.04787
1.01447
1.0533
1.01283
1.04823
1.06757
0.973304
1.0549
1.00968
1.04619
1.02184
1.04453
1.0253
1.04298
1.02015
1.03954
1.01932
1.03741
1.02847
1.03793
1.02028
1.04075
1.00981
1.05917
1.02142
1.08061
0.981329
1.06502
0.982111
1.03597
1.00143
1.03787
1.02096
1.03537
1.01672
1.03325
1.01245
1.02956
1.01057
1.03468
1.0127
1.0462
1.01462
1.0434
1.01656
1.05073
1.01461
1.04346
1.06758
0.978458
1.05113
1.01242
1.04297
1.02595
1.04383
1.0285
1.042
1.02634
1.0415
1.02093
1.03696
1.0196
1.0351
1.02602
1.03553
1.02101
1.04164
1.01087
1.05652
1.02387
1.07242
0.98404
1.06263
0.986669
1.03551
1.00677
1.03649
1.02603
1.03537
1.0233
1.03361
1.01773
1.03156
1.01363
1.02798
1.01172
1.03341
1.0161
1.04309
1.01746
1.03992
1.01718
1.04788
1.01631
1.04038
1.06845
0.983098
1.05018
1.01741
1.04155
1.02988
1.0422
1.03129
1.04285
1.02974
1.04026
1.02614
1.03934
1.02141
1.03536
1.01698
1.03307
1.02505
1.03437
1.02206
1.0405
1.01209
1.05442
1.02263
1.04025
0.98638
1.06071
0.990777
1.03337
1.01131
1.03481
1.02911
1.03514
1.02852
1.03424
1.02409
1.0325
1.01845
1.03054
1.01509
1.02674
1.01299
1.03155
1.01937
1.03978
1.01996
1.0378
1.01739
1.04513
1.0105
1.02649
1.06645
0.985454
1.04391
1.01951
1.03736
1.03157
1.03984
1.03379
1.04187
1.03209
1.04175
1.02973
1.03903
1.02643
1.03799
1.02133
1.03448
1.01839
1.03056
1.02357
1.03336
1.02319
1.0398
1.01241
1.05061
1.03476
1.03842
0.987013
1.05598
0.990564
1.02734
1.0129
1.02929
1.02722
1.03194
1.02938
1.03432
1.02917
1.03353
1.02478
1.03203
1.01886
1.02946
1.01607
1.02624
1.01339
1.02943
1.02233
1.03711
1.02044
1.0363
1.01828
1.0387
1.02411
1.03341
1.06387
0.986513
1.03805
1.01956
1.03173
1.02954
1.03494
1.03268
1.03911
1.03347
1.04145
1.03183
1.04077
1.02927
1.03662
1.0265
1.03681
1.02098
1.03258
1.01955
1.02834
1.02397
1.03301
1.02222
1.0389
1.01295
1.04592
1.03014
1.04075
0.988679
1.05072
0.990655
1.02155
1.01313
1.02425
1.02731
1.02993
1.0273
1.03164
1.02929
1.0342
1.02956
1.03302
1.02531
1.02998
1.01958
1.02871
1.01727
1.02559
1.01433
1.02845
1.02173
1.03674
1.0207
1.03507
1.01975
1.04005
1.02119
1.03214
1.06289
0.987805
1.03148
1.01956
1.02641
1.02816
1.03144
1.02904
1.03393
1.03098
1.03873
1.03245
1.0403
1.03118
1.03948
1.02951
1.03723
1.02599
1.03503
1.02019
1.0308
1.01942
1.02659
1.02318
1.03283
1.02079
1.03743
1.01361
1.0456
1.02694
1.03816
0.991034
1.04609
0.990309
1.01528
1.0125
1.01938
1.02491
1.02464
1.02531
1.031
1.02678
1.03159
1.029
1.0338
1.0297
1.03286
1.02519
1.02966
1.02046
1.02809
1.01777
1.02486
1.01541
1.02825
1.02056
1.03597
1.02294
1.03335
1.0197
1.04009
1.01985
1.02928
1.06293
0.990311
1.02376
1.01665
1.02138
1.02586
1.02691
1.02481
1.03172
1.02752
1.03378
1.02845
1.03787
1.03191
1.03929
1.03068
1.03871
1.02943
1.03614
1.0257
1.0343
1.02183
1.0296
1.01823
1.02577
1.02282
1.03235
1.02048
1.0361
1.01313
1.04397
1.02696
1.03405
0.993527
1.04318
0.992373
1.01257
1.01156
1.0153
1.02202
1.02092
1.02323
1.0265
1.02385
1.03143
1.02575
1.03151
1.02844
1.03335
1.02979
1.03293
1.02523
1.02993
1.02102
1.02795
1.01797
1.02442
1.01496
1.02784
1.02012
1.03504
1.0231
1.03224
1.01952
1.03867
1.02029
1.02546
1.06014
0.993309
1.01927
1.01633
1.01877
1.02543
1.02418
1.02273
1.02879
1.02266
1.03212
1.02613
1.03367
1.02851
1.03533
1.03102
1.0384
1.03012
1.03757
1.02923
1.03502
1.02545
1.03274
1.02148
1.02887
1.01805
1.02548
1.02222
1.03167
1.02003
1.03564
1.01443
1.0413
1.02763
1.0301
0.995627
1.03991
0.994252
1.01008
1.01048
1.0119
1.01914
1.01788
1.0199
1.02328
1.02128
1.02729
1.02273
1.03132
1.02643
1.03128
1.02891
1.03292
1.02963
1.03282
1.02533
1.02988
1.02122
1.02814
1.01843
1.02412
1.01487
1.02662
1.01981
1.03418
1.02279
1.03145
1.01931
1.03638
1.02144
1.02176
1.05822
0.996744
1.01665
1.0174
1.016
1.02466
1.02187
1.02113
1.02638
1.02063
1.0296
1.02149
1.03132
1.02503
1.03324
1.02708
1.03632
1.02975
1.03762
1.02991
1.03657
1.02796
1.0342
1.02451
1.03196
1.02105
1.02794
1.01719
1.02483
1.02205
1.03135
1.0199
1.03524
1.01469
1.03885
1.02834
1.02644
0.99826
1.03838
0.996275
1.00684
1.00995
1.00975
1.01787
1.01811
1.01839
1.0211
1.01854
1.02367
1.02073
1.02779
1.0224
1.031
1.02592
1.03119
1.02916
1.03239
1.0296
1.03259
1.02589
1.02969
1.02224
1.02801
1.01876
1.02376
1.01618
1.02579
1.01943
1.03331
1.0224
1.03077
1.01956
1.03454
1.02245
1.01832
1.05829
1.00245
1.01679
1.01869
1.01415
1.02545
1.02332
1.02371
1.02773
1.02023
1.02704
1.01954
1.02966
1.02081
1.03121
1.02416
1.03308
1.02641
1.03541
1.02805
1.03778
1.02969
1.03681
1.02739
1.03341
1.02395
1.03102
1.02111
1.02724
1.01723
1.02363
1.02157
1.03085
1.01972
1.03467
1.01489
1.03683
1.0287
1.02259
1.00222
1.03996
1.00053
1.00737
1.01357
1.01151
1.02056
1.02112
1.01906
1.02226
1.01798
1.02272
1.01797
1.02418
1.02005
1.02755
1.02238
1.03097
1.02558
1.03126
1.02785
1.03243
1.02908
1.03229
1.0265
1.02995
1.02222
1.02766
1.01891
1.0237
1.01608
1.02554
1.01892
1.03293
1.02229
1.03045
1.01995
1.03301
1.02314
1.01478
1.05898
1.00848
1.01856
1.02217
1.01632
1.02949
1.02731
1.02675
1.03119
1.02314
1.02879
1.01883
1.02696
1.01871
1.02897
1.01998
1.03138
1.02345
1.03212
1.02531
1.03514
1.02859
1.03719
1.02945
1.03624
1.02721
1.03285
1.02378
1.03076
1.02088
1.02653
1.0171
1.02298
1.02055
1.0305
1.01954
1.03399
1.01487
1.03507
1.02924
1.01933
1.00542
1.0417
1.00577
1.0101
1.01854
1.0143
1.02342
1.02321
1.02143
1.02563
1.01919
1.02372
1.01877
1.02284
1.01745
1.02408
1.02007
1.02752
1.02219
1.03145
1.02524
1.03118
1.02734
1.03266
1.02901
1.03225
1.0264
1.02993
1.02216
1.0276
1.0188
1.02362
1.01584
1.02502
1.01892
1.03223
1.02221
1.03003
1.01978
1.03195
1.0236
1.01115
1.05852
1.01327
1.02034
1.02638
1.01926
1.03185
1.02876
1.02608
1.03313
1.02523
1.03235
1.02173
1.02904
1.01619
1.02613
1.01858
1.02969
1.01933
1.03086
1.02277
1.03162
1.02504
1.03455
1.02827
1.0364
1.02897
1.03566
1.02688
1.03228
1.02334
1.03011
1.02059
1.02575
1.0169
1.0224
1.0198
1.0302
1.01946
1.0333
1.01468
1.03367
1.02987
1.01691
1.00801
1.04167
1.01062
1.01254
1.02203
1.01509
1.02275
1.02128
1.02054
1.02684
1.02086
1.02716
1.02019
1.0246
1.01803
1.02332
1.01739
1.02432
1.01997
1.02744
1.02206
1.03101
1.02511
1.03112
1.02669
1.03287
1.02895
1.03213
1.0262
1.0298
1.02212
1.02739
1.01884
1.02302
1.01573
1.0243
1.01872
1.03163
1.02204
1.02948
1.01948
1.031
1.02428
1.00915
1.05705
1.01711
1.02264
1.03008
1.02042
1.03039
1.02732
1.02369
1.0335
1.02368
1.03335
1.02402
1.03236
1.02057
1.0302
1.0186
1.0267
1.01785
1.02885
1.01877
1.03042
1.02185
1.03144
1.02421
1.03396
1.02783
1.03587
1.02844
1.03524
1.02658
1.03183
1.02282
1.02953
1.0205
1.02506
1.01679
1.022
1.01923
1.02993
1.0194
1.03258
1.01441
1.03236
1.02918
1.01484
1.00919
1.04067
1.01409
1.01379
1.02236
1.01254
1.0198
1.01885
1.01815
1.02446
1.01946
1.02783
1.02083
1.02802
1.02049
1.02475
1.01751
1.02407
1.01745
1.02451
1.01975
1.02754
1.02155
1.03098
1.0248
1.03105
1.02587
1.03282
1.02857
1.03209
1.02607
1.02949
1.02222
1.02691
1.0189
1.02299
1.0154
1.02374
1.01827
1.03098
1.02207
1.02874
1.01937
1.03009
1.02383
1.00683
1.0549
1.01875
1.02311
1.02993
1.01801
1.02641
1.02507
1.02078
1.03131
1.01975
1.03334
1.02258
1.03321
1.02346
1.03279
1.02049
1.02885
1.01823
1.02641
1.01773
1.02887
1.01844
1.03028
1.02176
1.03117
1.02399
1.03348
1.02793
1.03578
1.02768
1.03505
1.02616
1.0312
1.0225
1.02906
1.02
1.02456
1.01618
1.02142
1.01866
1.02945
1.01948
1.03188
1.01428
1.03104
1.02849
1.01235
1.00981
1.03764
1.01501
1.01178
1.01995
1.009
1.01692
1.01667
1.0145
1.02164
1.01819
1.02558
1.01952
1.02864
1.02065
1.02837
1.0208
1.02603
1.01772
1.02458
1.01699
1.02449
1.0196
1.02756
1.02119
1.0302
1.02463
1.03061
1.02588
1.03273
1.02739
1.032
1.02602
1.02932
1.02219
1.02679
1.01873
1.02277
1.01545
1.02321
1.01793
1.03033
1.02188
1.028
1.01911
1.02909
1.02346
1.00414
1.05254
1.01962
1.0214
1.02747
1.01522
1.02253
1.02266
1.01793
1.02784
1.01662
1.03037
1.01798
1.03213
1.02135
1.03298
1.02303
1.03285
1.0204
1.03046
1.01831
1.02591
1.01707
1.02854
1.01828
1.02965
1.0218
1.03109
1.02361
1.03273
1.02746
1.03549
1.02865
1.03453
1.02594
1.03096
1.0222
1.02861
1.01976
1.02419
1.01587
1.02094
1.01827
1.029
1.01933
1.03121
1.01402
1.02988
1.02786
1.00966
1.01107
1.03496
1.01462
1.00912
1.01739
1.00591
1.01389
1.01431
1.01073
1.01965
1.01473
1.02287
1.01767
1.02665
1.01925
1.0286
1.02123
1.02864
1.02044
1.02621
1.01762
1.02498
1.01675
1.02459
1.01943
1.02709
1.02071
1.03027
1.02444
1.03078
1.02555
1.03259
1.02724
1.03182
1.02592
1.02909
1.0219
1.02644
1.01871
1.02239
1.01519
1.02264
1.01776
1.02927
1.02209
1.0274
1.01901
1.0283
1.02308
1.00159
1.05039
1.02045
1.02004
1.02552
1.01316
1.01919
1.0201
1.01523
1.02547
1.0145
1.02797
1.01515
1.03032
1.01782
1.03168
1.02065
1.03267
1.02253
1.03308
1.02076
1.03008
1.01852
1.02601
1.01734
1.02802
1.01803
1.0301
1.02172
1.03077
1.02336
1.03241
1.02721
1.03498
1.02836
1.03402
1.02566
1.03058
1.02193
1.02809
1.01919
1.02381
1.01573
1.02043
1.01799
1.0285
1.01934
1.03041
1.01365
1.02869
1.02726
1.00743
1.01195
1.03308
1.01423
1.00628
1.01473
1.00367
1.01143
1.01321
1.0096
1.01892
1.01105
1.02044
1.01475
1.02279
1.01708
1.02699
1.01904
1.02914
1.02127
1.02888
1.02048
1.02647
1.01771
1.02497
1.01686
1.02479
1.0193
1.02688
1.02047
1.02982
1.0242
1.03059
1.02534
1.03248
1.02694
1.0316
1.02578
1.02868
1.02179
1.02589
1.01863
1.02189
1.01497
1.02198
1.01741
1.0284
1.02199
1.02658
1.01881
1.02744
1.0228
0.999397
1.04853
1.02177
1.01931
1.02455
1.01208
1.01678
1.01824
1.01406
1.02517
1.01298
1.0264
1.01348
1.0274
1.01419
1.0289
1.01732
1.03172
1.02122
1.03241
1.0218
1.03316
1.02114
1.03001
1.01833
1.02623
1.01714
1.02777
1.01775
1.0296
1.02151
1.03049
1.02312
1.03218
1.02676
1.03448
1.0282
1.03356
1.02536
1.03031
1.02149
1.02785
1.01903
1.02317
1.01539
1.0199
1.01768
1.02785
1.01925
1.02969
1.01338
1.02741
1.02667
1.00536
1.01312
1.03205
1.01366
1.00394
1.0131
1.00258
1.00996
1.0132
1.00975
1.01896
1.01029
1.0201
1.01163
1.02086
1.01495
1.02389
1.01727
1.02741
1.01899
1.02962
1.02116
1.02919
1.02056
1.02626
1.01803
1.02504
1.0168
1.02467
1.01912
1.02676
1.02048
1.02955
1.0238
1.03029
1.0252
1.03232
1.02672
1.03137
1.02554
1.02847
1.02152
1.02555
1.01857
1.02192
1.0146
1.02116
1.01734
1.02786
1.02178
1.02579
1.01885
1.02659
1.02247
0.997102
1.04695
1.02346
1.01994
1.0227
1.01145
1.01565
1.01792
1.01434
1.02609
1.01273
1.02661
1.01226
1.02495
1.01309
1.02732
1.01407
1.02865
1.01697
1.03082
1.02075
1.03229
1.0222
1.03305
1.02133
1.02991
1.01837
1.02617
1.01696
1.0279
1.01751
1.02909
1.02125
1.0301
1.02294
1.03191
1.02626
1.03372
1.0279
1.03325
1.02512
1.02984
1.02132
1.02733
1.01875
1.02287
1.01525
1.01929
1.01712
1.02732
1.0192
1.02889
1.0133
1.02618
1.02614
1.00319
1.01459
1.03211
1.01381
1.00576
1.01325
1.00307
1.00985
1.01403
1.01046
1.01973
1.0109
1.01971
1.01117
1.02105
1.01194
1.02122
1.0147
1.02415
1.01749
1.02684
1.01905
1.02936
1.02158
1.02942
1.02074
1.02665
1.01724
1.02505
1.01679
1.02458
1.01905
1.0264
1.02035
1.02945
1.02314
1.03009
1.02512
1.03166
1.02642
1.03115
1.02529
1.02816
1.02124
1.0252
1.01834
1.02156
1.01426
1.02065
1.01691
1.02706
1.02175
1.02503
1.0188
1.02555
1.02207
0.995065
1.04618
1.02508
1.01931
1.02153
1.01107
1.01539
1.01859
1.01497
1.02668
1.01281
1.02752
1.01226
1.026
1.01268
1.02479
1.01255
1.02571
1.0141
1.02804
1.01706
1.03059
1.02093
1.03173
1.02215
1.03189
1.02127
1.02988
1.01916
1.02605
1.01668
1.02743
1.01742
1.02897
1.02093
1.02979
1.02294
1.0316
1.02595
1.0339
1.02754
1.03285
1.02479
1.02954
1.02115
1.02698
1.01845
1.0225
1.01481
1.0189
1.01671
1.02671
1.01922
1.028
1.01373
1.02489
1.02558
1.00137
1.01695
1.03265
1.01537
1.00509
1.01288
1.0039
1.01051
1.01479
1.01042
1.01988
1.01122
1.02137
1.01134
1.02075
1.01118
1.02139
1.01261
1.02191
1.01443
1.02414
1.01746
1.02653
1.01972
1.02969
1.02175
1.03026
1.0213
1.02689
1.01751
1.02512
1.0165
1.02477
1.0187
1.02649
1.02007
1.02933
1.02291
1.0295
1.02498
1.03121
1.02641
1.03093
1.02498
1.02782
1.02101
1.025
1.01815
1.02133
1.01419
1.02012
1.01645
1.02628
1.02155
1.02442
1.01816
1.02454
1.02158
0.993364
1.04599
1.02796
1.02075
1.02198
1.01229
1.01629
1.01987
1.01484
1.02617
1.01243
1.02824
1.01265
1.02727
1.01299
1.02518
1.01281
1.02452
1.01291
1.02514
1.01459
1.02765
1.01723
1.0305
1.02045
1.03128
1.02248
1.03176
1.02117
1.02971
1.01903
1.02593
1.01697
1.02729
1.01744
1.02868
1.02068
1.02956
1.02257
1.03131
1.02549
1.03375
1.02702
1.03251
1.02466
1.02923
1.02086
1.02643
1.01821
1.02208
1.01427
1.01838
1.01638
1.026
1.01919
1.02706
1.01344
1.02362
1.02487
0.999848
1.01903
1.0344
1.01647
1.00515
1.01397
1.00551
1.01137
1.01475
1.0096
1.01987
1.01118
1.02061
1.01192
1.02144
1.01254
1.02164
1.01211
1.02176
1.01272
1.02264
1.01457
1.02455
1.01737
1.02681
1.0199
1.03039
1.0218
1.03035
1.02151
1.02711
1.01752
1.02484
1.01657
1.02448
1.01844
1.02638
1.01979
1.02911
1.0227
1.02949
1.02472
1.03109
1.02597
1.03075
1.02461
1.02748
1.02081
1.02457
1.01793
1.02104
1.01423
1.01937
1.016
1.02552
1.02125
1.02384
1.018
1.0234
1.02105
0.991902
1.04517
1.02931
1.02263
1.02283
1.01384
1.01688
1.02045
1.01366
1.02491
1.01175
1.02776
1.01256
1.02815
1.01272
1.02567
1.01339
1.02445
1.01245
1.02385
1.01325
1.02493
1.01433
1.02723
1.01737
1.03016
1.02066
1.03064
1.02263
1.03143
1.0211
1.02902
1.0192
1.02625
1.01673
1.02715
1.01734
1.02838
1.02039
1.02927
1.02233
1.03091
1.02515
1.03336
1.02684
1.03216
1.02444
1.02889
1.02049
1.02615
1.01792
1.02159
1.0139
1.01781
1.0161
1.02512
1.01923
1.02603
1.0133
1.0224
1.02405
0.998328
1.02057
1.03549
1.0177
1.00559
1.01483
1.00655
1.01158
1.01417
1.00877
1.01969
1.01002
1.02047
1.01188
1.02115
1.01311
1.0228
1.01293
1.02214
1.01297
1.02205
1.01283
1.02262
1.01463
1.02455
1.01716
1.02697
1.01967
1.03036
1.02171
1.03034
1.0217
1.02799
1.01762
1.02468
1.01657
1.02469
1.01811
1.02638
1.01957
1.02888
1.02258
1.02914
1.02439
1.03086
1.02553
1.03048
1.02429
1.02715
1.02056
1.02417
1.01768
1.02081
1.01407
1.01874
1.01555
1.02484
1.02101
1.02326
1.01777
1.02225
1.02027
0.990585
1.04552
1.03139
1.02414
1.02355
1.01483
1.01697
1.0205
1.01235
1.02392
1.01108
1.02616
1.0123
1.02722
1.0129
1.02708
1.0135
1.02439
1.01348
1.02449
1.01299
1.0236
1.01324
1.02448
1.01437
1.02666
1.01744
1.02982
1.02085
1.03064
1.02268
1.03184
1.0212
1.02864
1.01911
1.0263
1.0166
1.02692
1.01728
1.02803
1.02016
1.02894
1.02196
1.03078
1.02473
1.03294
1.02668
1.03172
1.02413
1.02865
1.01997
1.02574
1.01758
1.02111
1.01365
1.01735
1.0157
1.02424
1.01911
1.02492
1.01309
1.02108
1.02315
0.996734
1.02161
1.03716
1.01993
1.00634
1.016
1.00763
1.01142
1.01354
1.00818
1.01861
1.00946
1.01957
1.01146
1.02072
1.01258
1.02134
1.01355
1.02275
1.01326
1.02247
1.01314
1.02197
1.01311
1.02224
1.01494
1.02491
1.01706
1.02707
1.01976
1.03031
1.02177
1.03033
1.02166
1.0283
1.01776
1.02471
1.01652
1.02467
1.01765
1.02635
1.01936
1.02861
1.0219
1.02898
1.02396
1.03074
1.02534
1.03019
1.02389
1.02688
1.0201
1.02367
1.01759
1.02042
1.01376
1.01806
1.01516
1.0242
1.02087
1.02242
1.01747
1.021
1.01951
0.989298
1.04459
1.03267
1.025
1.02393
1.01577
1.01677
1.02008
1.01107
1.02315
1.01034
1.02476
1.01151
1.02555
1.0118
1.02543
1.01365
1.02684
1.01402
1.02553
1.01391
1.02422
1.01318
1.02369
1.01303
1.02446
1.01429
1.02601
1.01774
1.02955
1.02082
1.03071
1.02259
1.03142
1.0213
1.02865
1.01909
1.0264
1.01644
1.02652
1.01739
1.02778
1.01982
1.02873
1.02215
1.03055
1.02453
1.03258
1.02615
1.03166
1.02386
1.02847
1.01989
1.02561
1.01723
1.02056
1.01344
1.01679
1.01533
1.02325
1.01893
1.02391
1.01291
1.01973
1.02207
0.995336
1.02245
1.03774
1.02215
1.00719
1.01681
1.00794
1.01038
1.01266
1.00742
1.01713
1.00869
1.0196
1.0102
1.01932
1.01269
1.0208
1.0133
1.02148
1.0138
1.02293
1.01352
1.02283
1.01336
1.02195
1.01323
1.02248
1.01509
1.02494
1.01711
1.0272
1.01993
1.03024
1.02185
1.03097
1.02158
1.02827
1.01773
1.02477
1.0165
1.02462
1.01744
1.02631
1.01899
1.02836
1.02159
1.02877
1.02364
1.03061
1.02483
1.02987
1.02342
1.02664
1.0198
1.02334
1.01736
1.0201
1.01337
1.01746
1.01463
1.02347
1.02086
1.02167
1.01707
1.0196
1.0186
0.988258
1.04372
1.03394
1.02605
1.02408
1.01636
1.01605
1.01918
1.01006
1.02244
1.00918
1.02385
1.01077
1.02412
1.01237
1.02521
1.01273
1.02534
1.01368
1.02561
1.01463
1.02509
1.01449
1.02428
1.01355
1.02377
1.0136
1.02415
1.01447
1.02595
1.01758
1.02929
1.02061
1.03074
1.02259
1.03127
1.0214
1.02878
1.01909
1.02624
1.01627
1.0263
1.01723
1.02746
1.01974
1.0286
1.02183
1.03027
1.02405
1.03218
1.02609
1.0315
1.02357
1.0282
1.01959
1.02517
1.01696
1.02008
1.01326
1.01621
1.01488
1.02245
1.01853
1.02278
1.0127
1.01827
1.02086
0.994291
1.02294
1.03804
1.02411
1.00751
1.01688
1.00754
1.00914
1.01218
1.00694
1.01603
1.00848
1.01837
1.0093
1.01884
1.01125
1.01988
1.01304
1.02092
1.01439
1.02199
1.01402
1.02246
1.01381
1.0227
1.01353
1.02192
1.01348
1.02267
1.01516
1.0248
1.01733
1.02732
1.02005
1.03018
1.0218
1.03089
1.02173
1.02832
1.01779
1.02481
1.01627
1.02464
1.01727
1.02611
1.01878
1.02812
1.02124
1.02864
1.02308
1.03049
1.02452
1.02974
1.02305
1.02649
1.01951
1.02302
1.01714
1.0197
1.01286
1.0169
1.01422
1.02276
1.02068
1.02084
1.01662
1.01824
1.01744
0.987474
1.04295
1.03453
1.0265
1.02356
1.0164
1.01502
1.01823
1.00925
1.02138
1.00814
1.02351
1.00954
1.02314
1.0111
1.02328
1.01219
1.02389
1.01331
1.02471
1.01378
1.0245
1.01484
1.02535
1.01469
1.02417
1.01363
1.02352
1.01371
1.02399
1.01458
1.02567
1.01747
1.02916
1.02051
1.03075
1.02261
1.03121
1.02129
1.02873
1.01902
1.02627
1.01637
1.02613
1.01706
1.02723
1.01947
1.02846
1.02154
1.02998
1.02386
1.0318
1.02561
1.03121
1.02316
1.02788
1.01923
1.02466
1.0166
1.01963
1.01301
1.01575
1.01439
1.02135
1.01829
1.02171
1.01237
1.01704
1.01956
0.993203
1.0234
1.03816
1.02533
1.00727
1.01652
1.00703
1.00811
1.01188
1.00628
1.0151
1.00831
1.01812
1.00867
1.01905
1.0105
1.01989
1.01186
1.02094
1.01343
1.02138
1.01489
1.0231
1.0143
1.02271
1.01406
1.02286
1.01376
1.02238
1.0136
1.0228
1.01518
1.02506
1.01737
1.02737
1.02012
1.03011
1.02189
1.03097
1.02187
1.0282
1.01792
1.02473
1.01623
1.0245
1.01711
1.02592
1.0185
1.02799
1.02097
1.02849
1.02279
1.03022
1.02425
1.02961
1.02274
1.02625
1.01923
1.02275
1.01689
1.01916
1.01244
1.01612
1.01377
1.02209
1.02032
1.02001
1.01617
1.01712
1.01651
0.986537
1.04146
1.03452
1.02671
1.02293
1.01614
1.01397
1.01733
1.00847
1.02051
1.00795
1.02359
1.00847
1.0229
1.00977
1.02205
1.01096
1.02118
1.01265
1.02204
1.0137
1.02423
1.01415
1.02393
1.01539
1.02502
1.01497
1.02391
1.0138
1.02333
1.01384
1.02383
1.01477
1.02561
1.01745
1.02896
1.02054
1.03074
1.02251
1.03131
1.02127
1.02853
1.01906
1.0259
1.01625
1.02598
1.01686
1.02712
1.01923
1.02819
1.02119
1.02964
1.02352
1.03168
1.02514
1.03096
1.02282
1.02754
1.01885
1.02419
1.01627
1.01907
1.0127
1.01532
1.01333
1.02048
1.01802
1.02071
1.012
1.01598
1.01873
0.991784
1.02341
1.03737
1.02581
1.0069
1.01608
1.00656
1.0073
1.01162
1.00587
1.01482
1.00843
1.01738
1.00893
1.01863
1.00954
1.01862
1.01121
1.02012
1.01234
1.02065
1.01306
1.02162
1.01497
1.02305
1.01474
1.02274
1.01438
1.02281
1.01402
1.02236
1.01368
1.02293
1.0151
1.02507
1.01733
1.02744
1.02018
1.03007
1.02189
1.03097
1.02199
1.02856
1.01803
1.02495
1.01617
1.02449
1.01699
1.02578
1.01828
1.02781
1.02067
1.02843
1.0225
1.03008
1.02392
1.02948
1.02236
1.02608
1.01883
1.02251
1.01663
1.01868
1.01212
1.01553
1.01388
1.02137
1.01992
1.01907
1.01556
1.01595
1.01589
0.985506
1.04025
1.03456
1.02691
1.02224
1.01581
1.01314
1.01661
1.00788
1.01997
1.00795
1.02341
1.00836
1.02312
1.00802
1.02061
1.01045
1.02085
1.01209
1.02054
1.01339
1.02168
1.01456
1.02359
1.01474
1.02361
1.01537
1.02452
1.01515
1.02391
1.01394
1.02348
1.01399
1.02371
1.01485
1.02556
1.01746
1.02884
1.02047
1.03076
1.02248
1.03142
1.02125
1.02859
1.01899
1.02585
1.01613
1.0258
1.01664
1.02688
1.01895
1.02809
1.02093
1.0293
1.02309
1.03146
1.02467
1.0306
1.02247
1.02729
1.0185
1.0237
1.0159
1.0188
1.01225
1.01481
1.01246
1.01959
1.01771
1.01972
1.01168
1.01481
1.0178
0.990392
1.02335
1.03774
1.02676
1.00666
1.01549
1.00617
1.00671
1.01137
1.00556
1.01454
1.00829
1.01703
1.00898
1.01734
1.01037
1.01829
1.01055
1.01932
1.01169
1.0197
1.01286
1.02133
1.01354
1.02184
1.01499
1.02305
1.01495
1.0232
1.01453
1.023
1.01411
1.02234
1.01378
1.0229
1.01507
1.02494
1.0174
1.02746
1.02016
1.03016
1.02189
1.03095
1.02209
1.02858
1.01795
1.02502
1.01612
1.02441
1.01684
1.02548
1.01808
1.02763
1.0204
1.02825
1.02219
1.02966
1.02323
1.02943
1.02202
1.02589
1.01849
1.02219
1.01625
1.0183
1.0118
1.01501
1.01325
1.02067
1.01935
1.01816
1.01519
1.01466
1.01499
0.984822
1.03955
1.03456
1.02682
1.02137
1.01546
1.01242
1.01607
1.0074
1.01963
1.00807
1.02349
1.00838
1.02266
1.00889
1.02163
1.00971
1.02054
1.01167
1.02023
1.01265
1.02115
1.01358
1.02158
1.01447
1.02304
1.01515
1.02342
1.01563
1.02412
1.01533
1.02388
1.01415
1.02342
1.01408
1.02355
1.01491
1.02546
1.01738
1.02877
1.02047
1.03051
1.02245
1.03126
1.02125
1.02867
1.01909
1.02571
1.016
1.02559
1.01645
1.02685
1.01871
1.028
1.02064
1.02913
1.02274
1.03144
1.02478
1.03038
1.02207
1.02697
1.01811
1.02332
1.0155
1.01833
1.01174
1.01422
1.01194
1.01875
1.01744
1.01871
1.01182
1.01357
1.01594
0.986605
1.02363
1.0375
1.02697
1.00619
1.01483
1.006
1.00635
1.01112
1.0055
1.01452
1.00862
1.01735
1.00927
1.0171
1.01019
1.0172
1.01116
1.01802
1.01081
1.01917
1.01191
1.01971
1.01314
1.02111
1.01392
1.0225
1.01521
1.02321
1.01527
1.02341
1.01475
1.02307
1.01426
1.0224
1.01394
1.02308
1.01513
1.02501
1.01757
1.02747
1.02022
1.03027
1.02195
1.0311
1.02208
1.02859
1.01808
1.02509
1.01599
1.02437
1.01666
1.02537
1.01782
1.02738
1.02012
1.02816
1.02186
1.02952
1.02294
1.02923
1.02155
1.02575
1.01807
1.02192
1.01582
1.01773
1.01144
1.01441
1.01258
1.0198
1.01879
1.01741
1.01435
1.01347
1.0125
0.981699
1.03883
1.03468
1.02679
1.02093
1.01524
1.01185
1.01569
1.00697
1.01943
1.00823
1.02344
1.00851
1.02293
1.00888
1.02092
1.00997
1.02071
1.01041
1.02013
1.01199
1.02001
1.01261
1.02102
1.01385
1.02165
1.01473
1.02216
1.01524
1.02341
1.01575
1.02403
1.01549
1.02377
1.0142
1.02341
1.01406
1.02352
1.01499
1.0254
1.01739
1.02861
1.0204
1.03045
1.02235
1.03133
1.02133
1.02856
1.01904
1.02568
1.01591
1.02553
1.01624
1.02662
1.01846
1.02776
1.02034
1.02891
1.02241
1.03132
1.02431
1.03016
1.02186
1.0267
1.01779
1.02292
1.01506
1.01809
1.01125
1.01363
1.01135
1.01819
1.01696
1.01762
1.01117
1.01237
1.01778
0.985761
1.02408
1.03786
1.02744
1.00612
1.01441
1.00611
1.00616
1.01096
1.00578
1.01482
1.00917
1.01774
1.00953
1.0167
1.01054
1.01734
1.01148
1.01763
1.01127
1.0182
1.01123
1.0189
1.01219
1.01975
1.01312
1.0212
1.01401
1.02266
1.0153
1.02323
1.01539
1.0233
1.01503
1.02326
1.0144
1.02245
1.01398
1.02301
1.01516
1.02499
1.01761
1.0276
1.02026
1.03031
1.02196
1.03108
1.02214
1.02865
1.0181
1.02513
1.01594
1.02423
1.01646
1.02527
1.01762
1.02732
1.01974
1.02803
1.02153
1.02941
1.02253
1.02905
1.02122
1.02558
1.01768
1.02165
1.01543
1.01729
1.01104
1.01386
1.01188
1.01863
1.01824
1.01671
1.01349
1.01148
1.01503
0.981485
1.03893
1.03501
1.02728
1.02019
1.015
1.01145
1.01547
1.00662
1.01937
1.00846
1.02358
1.00899
1.02299
1.00895
1.02058
1.01055
1.02067
1.00988
1.01924
1.01079
1.01946
1.01247
1.02009
1.0129
1.02106
1.01393
1.0214
1.01492
1.02237
1.0155
1.02337
1.01599
1.02414
1.01559
1.02383
1.01432
1.0234
1.01424
1.02364
1.01499
1.0254
1.01737
1.0285
1.02035
1.03046
1.02236
1.03133
1.02135
1.0284
1.01901
1.02564
1.0157
1.0254
1.0161
1.02633
1.01824
1.02763
1.02007
1.02872
1.02211
1.03113
1.02404
1.0299
1.02148
1.02637
1.01742
1.02249
1.01467
1.01769
1.01072
1.01302
1.01076
1.01743
1.01644
1.0167
1.01058
1.01088
1.01584
0.98539
1.02443
1.038
1.02759
1.00616
1.01437
1.00637
1.00603
1.01083
1.00607
1.01473
1.009
1.01778
1.01013
1.01692
1.01158
1.01706
1.01133
1.01739
1.01159
1.01831
1.01184
1.01851
1.01149
1.01886
1.01225
1.01968
1.01309
1.0209
1.01411
1.02246
1.0154
1.02332
1.01556
1.02338
1.01506
1.02329
1.01448
1.02256
1.01409
1.02304
1.0152
1.02501
1.01758
1.02763
1.02027
1.03017
1.02207
1.03115
1.02215
1.02888
1.01812
1.02514
1.01574
1.02421
1.01625
1.02501
1.01736
1.02723
1.01948
1.02793
1.02121
1.02929
1.02224
1.02893
1.02098
1.02541
1.01722
1.02142
1.01491
1.01698
1.01058
1.01325
1.0111
1.01785
1.01754
1.01595
1.01281
1.01098
1.01323
0.981582
1.0387
1.03541
1.02712
1.01919
1.01494
1.01109
1.01539
1.00643
1.01954
1.009
1.02408
1.0094
1.02264
1.00974
1.02053
1.0111
1.02064
1.01073
1.01982
1.01148
1.01872
1.01131
1.019
1.0123
1.02013
1.01304
1.02093
1.01398
1.0218
1.01494
1.02259
1.01548
1.02345
1.01594
1.02411
1.01568
1.02382
1.01443
1.02339
1.01427
1.02364
1.01501
1.0254
1.01733
1.02845
1.02036
1.03056
1.02225
1.03129
1.02137
1.02844
1.01894
1.02561
1.0157
1.02534
1.01594
1.02637
1.01799
1.02745
1.01979
1.02849
1.02174
1.03092
1.02362
1.02959
1.02109
1.02596
1.01703
1.02198
1.0143
1.01724
1.01016
1.01245
1.01001
1.01676
1.01581
1.01586
1.00997
1.01027
1.01369
0.985328
1.02502
1.0386
1.0279
1.00686
1.01436
1.00661
1.00599
1.01078
1.00644
1.01469
1.00968
1.0172
1.01083
1.01808
1.01219
1.01764
1.01172
1.01714
1.01167
1.01771
1.01199
1.01836
1.01213
1.01826
1.01177
1.01873
1.01255
1.01974
1.01333
1.02104
1.01413
1.02236
1.01546
1.02334
1.01565
1.02336
1.01523
1.02326
1.01458
1.02256
1.01418
1.02302
1.01522
1.02501
1.01764
1.02767
1.02027
1.0302
1.02214
1.03111
1.02221
1.02893
1.01814
1.0252
1.01568
1.02412
1.01608
1.02495
1.01713
1.0271
1.01927
1.02775
1.0209
1.02919
1.022
1.02873
1.02077
1.02519
1.01684
1.02118
1.01436
1.01664
1.01009
1.01268
1.01035
1.01682
1.01681
1.0152
1.01206
1.01031
1.01105
0.980789
1.03831
1.03594
1.02698
1.01869
1.01504
1.01084
1.01545
1.00633
1.01948
1.00889
1.02327
1.00996
1.02194
1.01055
1.02097
1.01137
1.02047
1.01166
1.02008
1.01163
1.01901
1.01179
1.01885
1.01152
1.01936
1.01238
1.02011
1.01312
1.02098
1.01403
1.02168
1.01512
1.02255
1.01553
1.02347
1.01605
1.02425
1.01578
1.02389
1.01458
1.02338
1.01424
1.02355
1.01501
1.02541
1.01728
1.02827
1.02041
1.0305
1.02218
1.03135
1.02138
1.02845
1.01888
1.02554
1.01558
1.02525
1.01574
1.02621
1.01777
1.02724
1.01963
1.0284
1.02138
1.03066
1.0232
1.02922
1.02078
1.02555
1.01668
1.02155
1.01386
1.0168
1.00959
1.0118
1.00921
1.0161
1.01508
1.01515
1.00935
1.00946
1.01127
0.981555
1.02547
1.03875
1.02824
1.00733
1.01438
1.0069
1.00603
1.01072
1.00654
1.01417
1.0096
1.01719
1.01203
1.01758
1.01166
1.01742
1.01264
1.01773
1.01235
1.01749
1.01232
1.01789
1.01212
1.01805
1.01249
1.01825
1.0123
1.01874
1.0126
1.0197
1.01347
1.021
1.01413
1.02247
1.01551
1.02337
1.01577
1.02344
1.01539
1.02339
1.01463
1.02259
1.01427
1.02311
1.01525
1.02504
1.01766
1.02779
1.02028
1.03021
1.02217
1.03105
1.02215
1.02886
1.01816
1.02515
1.01561
1.02405
1.01584
1.02489
1.01691
1.02697
1.01896
1.02764
1.0206
1.029
1.02177
1.02849
1.02059
1.02478
1.01644
1.02088
1.01386
1.01625
1.00958
1.01214
1.0095
1.01603
1.01594
1.01456
1.01123
1.00932
1.01204
0.979743
1.03792
1.03662
1.0268
1.01848
1.01532
1.01066
1.01565
1.00617
1.0191
1.00859
1.02282
1.00998
1.02207
1.01042
1.02151
1.01211
1.02093
1.01221
1.01966
1.01208
1.01977
1.01184
1.01906
1.01208
1.0186
1.01168
1.01927
1.0122
1.02006
1.01315
1.02083
1.01413
1.02172
1.01518
1.02259
1.01556
1.02347
1.01603
1.02427
1.01577
1.02391
1.0147
1.0235
1.01433
1.02358
1.01502
1.02537
1.01728
1.02817
1.0204
1.0305
1.02218
1.03136
1.02152
1.02859
1.01883
1.0256
1.01547
1.02512
1.01559
1.02601
1.01756
1.02708
1.01939
1.02825
1.02105
1.03046
1.02279
1.02893
1.02055
1.02543
1.01622
1.0211
1.01334
1.01629
1.00899
1.01116
1.0084
1.0154
1.01431
1.01448
1.0087
1.00764
1.01209
0.982092
1.02593
1.03895
1.02874
1.00748
1.01453
1.0072
1.00604
1.01057
1.00648
1.0137
1.00977
1.01718
1.01096
1.01732
1.01292
1.0168
1.01296
1.0178
1.01299
1.01752
1.01273