/*--------------------------------*- C++ -*----------------------------------*\
| =========                 |                                                 |
| \\      /  F ield         | OpenFOAM: The Open Source CFD Toolbox           |
|  \\    /   O peration     | Version:  2206                                  |
|   \\  /    A nd           | Website:  www.openfoam.com                      |
|    \\/     M anipulation  |                                                 |
\*---------------------------------------------------------------------------*/
FoamFile
{
    version     2.0;
    format      ascii;
    arch        "LSB;label=32;scalar=64";
    class       volScalarField;
    location    "170";
    object      rhoPrime2Mean;
}
// * * * * * * * * * * * * * * * * * * * * * * * * * * * * * * * * * * * * * //

dimensions      [2 -6 0 0 0 0 0];

internalField   nonuniform List<scalar> 
93840
(
0.01199
0.00669966
0.0422716
0.00028427
0.00869294
0.0507148
0.00286135
0.00343479
0.00545008
0.0408594
0.000125467
0.00519182
0.0049118
0.0022126
0.033738
3.81893e-05
0.00434342
0.00228907
0.000626588
0.00700352
0.0503042
0.000137555
0.00275121
0.00479182
0.00711368
0.00240882
0.00940088
0.0563079
0.000142623
0.00265519
0.00217084
0.00104724
0.00153692
0.00177951
0.0130407
0.0838151
0.000170061
0.00136124
0.00333806
0.00230693
0.00213043
0.0070633
0.00241888
0.00801817
0.067852
0.000163891
0.00106547
0.00186724
0.0017144
0.00154083
0.00177541
0.00465779
0.0020162
0.00949611
0.0937527
0.000168695
0.000773077
0.00189461
0.00142695
0.0019405
0.00491168
0.00310205
0.0043976
0.00393903
0.00745335
0.0652743
0.000133596
0.00122487
0.00146328
0.00135485
0.00190019
0.00113917
0.00251826
0.00181108
0.00152527
0.00361871
0.00863755
0.0770696
0.000131207
0.000637746
0.00194111
0.00117606
0.00129909
0.00390574
0.00133544
0.00243046
0.00180502
0.00331872
0.00532974
0.00677925
0.0617151
0.000154219
0.00094239
0.0016182
0.00125056
0.00167623
0.000928243
0.00163411
0.00147274
0.000760349
0.00227797
0.00141007
0.00255721
0.0080167
0.0742289
0.000101389
0.000472657
0.00199187
0.00130558
0.000976112
0.00288394
0.000661925
0.00175395
0.00117177
0.00204959
0.00231779
0.0029841
0.00502479
0.00615943
0.0574831
0.000134474
0.000822674
0.00175256
0.00103122
0.00150975
0.000717939
0.00128279
0.000794404
0.000781724
0.00155089
0.000713474
0.00221022
0.0017057
0.00302117
0.00731492
0.07101
9.91638e-05
0.000423397
0.0019643
0.00142584
0.000841805
0.0021706
0.000322099
0.00119388
0.000691181
0.00158441
0.00133397
0.00206541
0.00251262
0.00275494
0.00454304
0.00558745
0.0548181
0.00016401
0.00067854
0.00194417
0.000991181
0.00142055
0.00056871
0.000911567
0.000427687
0.000710037
0.000803409
0.000606973
0.00154696
0.000745734
0.00230768
0.00180791
0.00313056
0.00668735
0.0680653
0.000120527
0.000444639
0.00201262
0.00141004
0.000699816
0.0018444
0.000233813
0.000979941
0.000447266
0.00114135
0.000788867
0.00142563
0.00140996
0.00211663
0.00242508
0.0026988
0.00435805
0.00512157
0.0524254
0.000195247
0.000589717
0.00201315
0.000942939
0.00123028
0.000573003
0.00063091
0.000188057
0.000554107
0.000452716
0.00060797
0.000806152
0.000553566
0.00161836
0.000863997
0.00240447
0.0017487
0.00324193
0.00615824
0.0646583
0.000189405
0.000569232
0.00191654
0.00139322
0.000637207
0.00152951
0.000148886
0.000797734
0.00033781
0.000893121
0.000505882
0.00107726
0.000845515
0.00133437
0.0013709
0.00201599
0.00231243
0.00238664
0.00428688
0.00471767
0.0504899
0.000224655
0.000533375
0.00187116
0.000967028
0.000950042
0.000503483
0.000415769
0.000158825
0.000334327
0.000223632
0.000459036
0.00048044
0.000536657
0.000837699
0.000530847
0.00156736
0.000808934
0.0024102
0.00168353
0.00332576
0.00570194
0.0608774
0.00031322
0.000677155
0.00181751
0.0013773
0.000542642
0.00129615
0.000141703
0.000602432
0.000219255
0.000667988
0.000356946
0.000834591
0.000537629
0.00102695
0.000894521
0.00134904
0.00124045
0.00188833
0.00236625
0.00213506
0.00422957
0.00437212
0.0489257
0.000234932
0.000521161
0.00185932
0.000928496
0.000764519
0.000481474
0.000182163
0.000182152
0.000164033
0.000158408
0.000272448
0.000249324
0.000450796
0.000492166
0.000548082
0.000823625
0.000522216
0.00156585
0.000717021
0.00239473
0.00164093
0.00337586
0.00527568
0.0569004
0.000360494
0.000843463
0.00181958
0.0012737
0.000447809
0.00097944
0.000146441
0.000496212
0.000152262
0.000448298
0.000228755
0.000652882
0.000360011
0.000791268
0.000569752
0.000754251
0.000906693
0.00104223
0.00117293
0.00158616
0.00239684
0.00199743
0.00414748
0.00398902
0.0550867
0.000232766
0.000562001
0.00172342
0.000794311
0.000658175
0.000393438
9.26122e-05
0.000208827
6.5446e-05
0.000205025
0.000123364
0.000168857
0.000258802
0.00028644
0.000428132
0.000491455
0.000523686
0.000833308
0.000610808
0.00147898
0.000737108
0.00244272
0.00161182
0.00341728
0.00454388
0.0578401
0.000369453
0.000887213
0.00186012
0.00121877
0.000360695
0.000655269
0.000122483
0.00023235
0.000106341
0.000353297
0.00015815
0.000414651
0.000236313
0.000581871
0.000388862
0.000722747
0.000574084
0.000784159
0.00080858
0.000798015
0.00113494
0.0014791
0.00242366
0.00188877
0.00413677
0.00398049
0.0513777
0.000232513
0.00060398
0.00161427
0.000677701
0.000522327
0.000363388
0.000100126
0.000227207
7.13493e-05
0.000216442
5.42832e-05
0.000187472
0.000123672
0.000179717
0.000276584
0.00029144
0.00045311
0.000508212
0.000517159
0.000799772
0.000698233
0.00146261
0.000720912
0.00246179
0.00148422
0.0038256
0.004605
0.0510427
0.000345891
0.000836415
0.00182929
0.00103711
0.000332972
0.000503284
8.59823e-05
0.00012023
8.27218e-05
0.000177123
0.000109864
0.000284021
0.000156182
0.00039362
0.000229039
0.000527705
0.00038762
0.0006527
0.000559462
0.000773533
0.000773097
0.000768962
0.00118672
0.00142909
0.00245948
0.00166497
0.00432939
0.00352103
0.046732
0.000231302
0.000571874
0.00142492
0.000618665
0.000417043
0.000299939
7.37188e-05
0.000279564
8.64008e-05
0.000197878
5.97955e-05
0.000197876
6.57774e-05
0.000178088
0.000149832
0.00019266
0.000303774
0.000296242
0.000445547
0.000536619
0.000493444
0.000824042
0.000661071
0.00155749
0.000778703
0.00246783
0.00144887
0.00344611
0.00416265
0.0474275
0.000313761
0.00079198
0.00176347
0.000867026
0.000301683
0.000440786
7.88639e-05
0.000101651
8.4716e-05
0.000112635
8.07033e-05
0.000181259
0.000114013
0.000265953
0.000145296
0.000340293
0.000186512
0.000492829
0.000324458
0.000494407
0.000501492
0.00074333
0.000760221
0.000827305
0.00124365
0.00126925
0.0024702
0.00157054
0.00405083
0.00349746
0.0438462
0.000246194
0.000498788
0.00120263
0.000545249
0.000332206
0.000248832
6.76258e-05
0.000217259
8.99911e-05
0.000244418
7.23509e-05
0.00018521
8.78764e-05
0.000164924
8.99551e-05
0.000163876
0.00017919
0.000195338
0.000308778
0.000279613
0.000417528
0.000544794
0.000481571
0.000861153
0.000662077
0.00158172
0.000916604
0.00242307
0.00146025
0.00342475
0.00388584
0.0447644
0.00029115
0.000766666
0.00162777
0.000781919
0.000272947
0.000329672
8.2055e-05
9.50805e-05
0.000106145
9.82254e-05
9.60796e-05
0.000117042
0.000102485
0.000170847
0.000108815
0.000254911
0.000118602
0.000310391
0.000169668
0.000437896
0.000294053
0.000556636
0.000479753
0.000728631
0.000762423
0.000849036
0.00125988
0.00121448
0.00249099
0.00154267
0.00391926
0.00305684
0.0416703
0.000259297
0.000523449
0.00107323
0.000556147
0.000335331
0.000210229
6.47249e-05
0.000166079
9.40202e-05
0.000213819
6.73825e-05
0.000204979
7.02384e-05
0.000133708
7.68144e-05
0.000120558
0.000112078
0.000145095
0.000199185
0.000177428
0.000319642
0.000272898
0.000416726
0.00055109
0.000466087
0.000865369
0.000680446
0.00160019
0.000926286
0.00239681
0.00146138
0.00338175
0.00343167
0.0424948
0.000271897
0.000675794
0.00150768
0.00074222
0.000253066
0.000223002
7.96633e-05
7.56944e-05
0.000114805
8.84132e-05
0.000110408
0.000114353
9.98408e-05
0.000127431
0.000110224
0.000159831
0.000105296
0.000250062
9.9031e-05
0.000297837
0.000157088
0.000427849
0.00026737
0.00055379
0.000468223
0.000756104
0.000772553
0.000853642
0.00126611
0.00126261
0.00252986
0.00152165
0.0037749
0.00275678
0.0396925
0.000255284
0.000539411
0.000903425
0.000593194
0.000346359
0.000142085
6.07213e-05
0.000174883
7.38881e-05
0.000202289
8.21511e-05
0.000188642
7.03664e-05
0.000166271
7.2983e-05
0.000117784
9.03189e-05
0.000107431
0.000145343
0.000134257
0.000217096
0.000156344
0.000336813
0.000258135
0.000416897
0.000543971
0.000446784
0.000866791
0.000700508
0.00162674
0.000933868
0.00239179
0.00132922
0.00329186
0.00308361
0.0404895
0.000262267
0.00060087
0.00141431
0.000686727
0.000217457
0.000192408
7.01426e-05
7.52965e-05
0.000110308
7.95237e-05
0.000135336
8.71344e-05
0.000107079
0.000122774
9.4946e-05
0.000114051
0.000106254
0.000149196
9.28251e-05
0.000235188
9.41445e-05
0.000295852
0.000146965
0.000387237
0.000258854
0.000563558
0.000433362
0.000767846
0.000763133
0.00084962
0.00127661
0.00129954
0.00254428
0.00138926
0.00363255
0.00253057
0.0377983
0.000249337
0.000603965
0.000796157
0.00065122
0.000277395
0.0001097
6.53003e-05
0.000213315
7.26162e-05
0.000239996
9.54725e-05
0.000200382
7.78029e-05
0.00017017
6.62229e-05
0.000154773
6.45307e-05
0.000102172
0.000108802
9.17818e-05
0.000162841
0.000114404
0.000224218
0.000136506
0.000357512
0.000251194
0.000423307
0.00052674
0.00051184
0.000841884
0.000716951
0.00161871
0.000955123
0.00238445
0.00131131
0.00320822
0.00279353
0.0384957
0.000267311
0.000510604
0.00134586
0.000572638
0.000216692
0.00015171
9.60538e-05
6.33897e-05
0.000106106
0.000108098
0.000149178
6.90644e-05
0.000127989
8.95995e-05
0.000111735
0.000113466
9.29472e-05
0.000109014
0.000111346
0.000123516
8.88759e-05
0.000228929
8.65216e-05
0.000309001
0.000134344
0.000389483
0.000248318
0.000560194
0.000430785
0.000744536
0.000732145
0.000880426
0.00129895
0.00131
0.00252903
0.00133798
0.00349043
0.00239469
0.0360218
0.000241555
0.000703018
0.000752312
0.000620848
0.000252111
9.65984e-05
7.4212e-05
0.00023276
5.33825e-05
0.000282908
9.66164e-05
0.000223522
6.92154e-05
0.000176263
7.04257e-05
0.000161105
5.78494e-05
0.000139259
6.97801e-05
8.47367e-05
0.0001144
7.90117e-05
0.000177728
0.000107595
0.000236604
0.000142274
0.000365319
0.000244373
0.000435939
0.000514075
0.000522769
0.00085806
0.00073497
0.00162371
0.00100673
0.00236807
0.00129972
0.00314298
0.00257971
0.0366252
0.000289688
0.000462515
0.00134882
0.000498448
0.00020402
0.000129295
0.000108203
6.34362e-05
0.000120408
0.000109376
0.000106576
8.67414e-05
0.000143713
6.39754e-05
0.00012032
7.72843e-05
0.000109014
0.000104342
9.45077e-05
8.87781e-05
0.000100189
0.000134575
7.01589e-05
0.000235928
8.46209e-05
0.000309028
0.00013639
0.000381708
0.000237603
0.000572814
0.000414666
0.000744481
0.000734029
0.000901046
0.00131839
0.00134781
0.00252874
0.0013205
0.00335817
0.00224635
0.0342209
0.000237771
0.000818227
0.000597469
0.000619574
0.000204022
8.47092e-05
8.82541e-05
0.000264524
4.57263e-05
0.000273292
5.46804e-05
0.000228855
6.52569e-05
0.00024186
5.63845e-05
0.000165427
6.06955e-05
0.000145161
5.22364e-05
0.000132231
7.42608e-05
8.19456e-05
0.000118097
7.0584e-05
0.000178199
9.7883e-05
0.000253054
0.000138573
0.000375593
0.000239677
0.00045908
0.00051221
0.000538507
0.000858169
0.000765369
0.0015999
0.00103036
0.00232492
0.0013369
0.00307752
0.00238654
0.0349068
0.000321031
0.000394635
0.00136943
0.000412245
0.000187986
0.000135682
0.000112382
5.89134e-05
0.000134385
9.75289e-05
0.000121195
7.28695e-05
0.000115314
7.35333e-05
9.30894e-05
6.0852e-05
0.000103582
7.16563e-05
0.000106006
9.39536e-05
8.68342e-05
9.12693e-05
9.78018e-05
0.000138948
5.98205e-05
0.000227623
8.34728e-05
0.000307136
0.000131668
0.000389288
0.000228695
0.000575017
0.000402534
0.000743733
0.000729169
0.000939005
0.00132731
0.00139538
0.00251164
0.00130154
0.00324458
0.0021278
0.0323699
0.000223488
0.000925528
0.0004654
0.000574555
0.000151435
0.000101763
0.000107827
0.000248751
5.98224e-05
0.00030385
4.29535e-05
0.000260532
5.40587e-05
0.000204786
6.91222e-05
0.00021908
4.78291e-05
0.000155447
5.49356e-05
0.000136521
5.62122e-05
0.000136976
7.81598e-05
8.18314e-05
0.000124812
6.65498e-05
0.000190883
9.00477e-05
0.000261374
0.000136258
0.000387184
0.000235731
0.000472716
0.000487616
0.000563685
0.000843869
0.000778461
0.00157586
0.00105673
0.00229032
0.00138733
0.00300857
0.0022196
0.0329189
0.000363055
0.000345863
0.00137801
0.000332257
0.000183985
0.000131275
0.000112211
5.16526e-05
0.000166339
7.6455e-05
0.0001535
7.864e-05
0.000121179
5.72059e-05
0.000102895
7.69082e-05
0.000108162
5.55196e-05
9.35833e-05
6.63338e-05
0.000105439
8.57304e-05
8.17399e-05
9.11373e-05
9.41534e-05
0.000141711
5.48251e-05
0.00021784
8.35136e-05
0.00030478
0.000130676
0.000397578
0.000224586
0.000582531
0.000379474
0.000743999
0.000715925
0.000982849
0.00132044
0.00143224
0.00247428
0.00129894
0.00313337
0.00207619
0.0305037
0.000210618
0.00104141
0.000336033
0.000593992
0.000106563
0.000118589
9.61177e-05
0.000235655
6.61442e-05
0.000306635
5.89763e-05
0.000283513
4.24301e-05
0.000233846
4.38453e-05
0.000201616
6.24559e-05
0.000187164
4.79908e-05
0.000147074
4.89933e-05
0.00012237
6.09971e-05
0.000134063
8.35221e-05
8.02119e-05
0.000131377
6.0147e-05
0.000201667
8.60968e-05
0.00027468
0.000124378
0.000396184
0.000232919
0.00048528
0.000497105
0.000589604
0.000833481
0.000803141
0.00154671
0.00108344
0.00223658
0.00143185
0.00293134
0.00211542
0.0310978
0.000387267
0.000294761
0.00141076
0.000255849
0.000185577
0.000124275
0.000129392
4.82004e-05
0.000189924
6.64235e-05
0.000176894
6.85019e-05
0.000149969
6.71944e-05
0.000115213
5.10465e-05
0.00014045
6.56362e-05
0.000103456
5.11656e-05
9.26392e-05
6.26333e-05
0.000100472
8.12704e-05
8.21913e-05
9.29105e-05
8.97338e-05
0.000145821
5.38647e-05
0.00020495
7.99171e-05
0.000299171
0.000119313
0.000401401
0.000222479
0.000585185
0.00037818
0.00075334
0.000701015
0.00101001
0.00129448
0.00145827
0.00244399
0.00129309
0.00301516
0.00204589
0.0287977
0.000200751
0.0010611
0.000245101
0.000566184
8.79812e-05
0.000139853
9.29405e-05
0.000227725
6.43524e-05
0.000272417
6.25475e-05
0.000266035
4.83527e-05
0.000261891
4.07463e-05
0.000222285
3.86372e-05
0.000196566
5.55325e-05
0.000159567
4.60433e-05
0.000142548
4.87596e-05
0.000119964
6.46899e-05
0.000123994
9.0533e-05
7.64913e-05
0.00013203
5.94205e-05
0.00021022
8.55923e-05
0.000283949
0.000136775
0.000405
0.000225725
0.000487834
0.000482984
0.00061374
0.000816603
0.000826047
0.00150722
0.00111256
0.00218309
0.00148195
0.00286165
0.00203152
0.0294153
0.000405281
0.000248104
0.00139952
0.000216028
0.000194232
0.000108887
0.000120475
5.60684e-05
0.000186884
7.56027e-05
0.000166655
6.06245e-05
0.000137737
6.25676e-05
0.000122372
5.51135e-05
0.000114648
4.12193e-05
0.000105985
5.80612e-05
0.000102921
4.26501e-05
9.09745e-05
5.89274e-05
0.000104382
7.89799e-05
9.04657e-05
9.23538e-05
7.51011e-05
0.000148871
4.97849e-05
0.000214573
7.78717e-05
0.000301236
0.000120963
0.00040842
0.000213143
0.000603411
0.000378481
0.000762043
0.000688675
0.00103266
0.00124138
0.00144266
0.00241185
0.00128312
0.00291487
0.00202692
0.027208
0.000187929
0.00101359
0.000214987
0.000535774
7.16999e-05
0.000158255
7.93471e-05
0.000219616
9.26805e-05
0.000247827
6.13206e-05
0.000236424
5.83016e-05
0.000245689
4.98702e-05
0.000218713
4.10713e-05
0.00021198
3.83967e-05
0.000177385
5.15735e-05
0.000139863
3.73707e-05
0.000129291
4.8316e-05
0.000126303
7.17683e-05
0.000123116
9.25791e-05
8.13594e-05
0.000129403
5.81701e-05
0.000205692
8.44896e-05
0.000290404
0.000136177
0.000422554
0.000223824
0.000503382
0.000465403
0.000635693
0.000789101
0.000851558
0.00144387
0.00116781
0.0021385
0.00154107
0.00280975
0.00197084
0.0278132
0.000435761
0.000213159
0.00136437
0.000165046
0.00022108
0.000109649
9.87565e-05
6.95641e-05
0.000165766
8.79245e-05
0.000184935
7.23881e-05
0.000150333
5.12799e-05
0.000135236
4.15857e-05
9.90372e-05
5.08589e-05
0.000111239
4.62461e-05
9.45008e-05
4.75765e-05
9.25477e-05
4.06292e-05
8.95933e-05
5.48833e-05
9.79772e-05
7.57102e-05
9.56154e-05
9.17823e-05
7.87015e-05
0.000156383
5.49787e-05
0.000210788
7.92302e-05
0.000304056
0.000123563
0.000412143
0.000205352
0.000601552
0.000374621
0.000778292
0.000677791
0.00104572
0.00121531
0.00144673
0.00237023
0.00128752
0.00279368
0.00200731
0.0256204
0.000178423
0.00100655
0.000183139
0.000494778
6.42171e-05
0.000174682
6.84839e-05
0.000215257
0.000109608
0.00022368
7.27121e-05
0.000207925
5.35687e-05
0.00020269
5.5848e-05
0.000226547
5.62756e-05
0.000213719
3.75551e-05
0.000200212
4.14228e-05
0.000155518
4.5181e-05
0.000134277
4.04109e-05
0.000122006
4.63263e-05
0.000120795
7.56065e-05
0.000109083
9.50335e-05
8.13111e-05
0.000127535
6.01541e-05
0.000207064
8.36425e-05
0.000296488
0.000136948
0.000426881
0.000221921
0.000510294
0.000441458
0.000652467
0.000762331
0.000868849
0.00139466
0.00119299
0.00207966
0.00158911
0.00274616
0.00190307
0.0261963
0.000462953
0.000186039
0.00122092
0.000138835
0.000263819
0.000131776
7.71265e-05
8.49066e-05
0.000141475
9.98712e-05
0.000162661
8.23472e-05
0.000144137
5.43853e-05
0.00015687
4.60904e-05
0.000131004
4.57552e-05
0.000106276
4.71478e-05
0.000105416
4.45168e-05
8.94787e-05
3.82354e-05
8.09484e-05
3.7225e-05
8.70238e-05
5.21271e-05
9.56825e-05
7.1005e-05
0.000101066
9.45624e-05
8.14954e-05
0.000157461
5.85727e-05
0.000208504
7.80025e-05
0.000304648
0.000124878
0.000422608
0.000200165
0.00062133
0.000356731
0.000790317
0.000658787
0.0010566
0.00118842
0.0014735
0.00233895
0.00130542
0.00267626
0.00198811
0.0240957
0.000173467
0.000974628
0.00018687
0.000462223
5.57727e-05
0.000169253
6.84032e-05
0.000193725
0.000102924
0.000187769
8.03294e-05
0.000185778
6.17303e-05
0.00017796
4.52634e-05
0.000191609
4.39086e-05
0.000214218
5.19561e-05
0.00019665
3.71516e-05
0.000185511
4.33005e-05
0.000121313
4.50067e-05
0.000123526
4.05824e-05
0.000116282
4.25598e-05
0.000114267
7.56791e-05
0.000103114
0.000100035
7.98422e-05
0.000132845
6.30732e-05
0.00021338
8.21674e-05
0.00030579
0.000135962
0.000439276
0.000217922
0.000523035
0.000456723
0.000667893
0.000726673
0.000884487
0.0013536
0.00122602
0.0020177
0.00162003
0.00268488
0.00184926
0.0246967
0.000482869
0.00015873
0.00113461
0.000127669
0.000263574
0.00015003
6.43986e-05
0.000113539
0.000111883
9.37803e-05
0.000128364
9.01777e-05
0.00010496
5.48856e-05
0.000143465
4.86993e-05
0.000139625
4.33896e-05
0.000127788
3.95808e-05
0.000103342
4.67088e-05
0.00010092
4.19421e-05
8.09077e-05
3.59643e-05
7.42114e-05
3.54307e-05
8.12294e-05
4.96896e-05
9.28846e-05
7.06906e-05
0.000100236
9.63107e-05
8.41467e-05
0.000156083
5.821e-05
0.000208092
7.56364e-05
0.000304752
0.000126034
0.000409553
0.000197218
0.000625439
0.000363364
0.000802425
0.000628106
0.00108545
0.00116173
0.00148746
0.00229089
0.00131726
0.00257148
0.00196271
0.0226385
0.000164415
0.000928369
0.000179216
0.000473523
6.0064e-05
0.000135456
7.41851e-05
0.000163338
0.000103953
0.000165391
6.51351e-05
0.000165893
6.77832e-05
0.000160502
5.45985e-05
0.000157913
3.559e-05
0.000181645
4.16443e-05
0.000184776
4.77798e-05
0.000167799
4.30925e-05
0.000160655
4.28032e-05
0.000117781
4.21676e-05
0.000110078
4.09587e-05
0.000107803
4.34516e-05
0.000111803
7.66783e-05
0.000102493
0.000101459
8.05667e-05
0.000136868
5.94204e-05
0.000215967
7.9631e-05
0.000309657
0.000137341
0.00043871
0.000214029
0.000537847
0.000443748
0.000689776
0.000726844
0.000901166
0.00130885
0.0012537
0.00194806
0.0016527
0.00261459
0.00180692
0.0232114
0.000496115
0.000148142
0.00103787
0.000139601
0.000270804
0.000153698
6.1994e-05
0.000120423
0.000110459
8.13254e-05
0.000114466
8.21542e-05
0.000104511
6.91682e-05
0.000102636
4.93458e-05
0.000100973
3.56517e-05
0.000126705
3.65466e-05
0.000115665
3.87548e-05
9.89922e-05
4.42386e-05
0.000114941
3.52921e-05
7.6202e-05
4.2588e-05
7.07774e-05
3.37671e-05
8.33496e-05
4.74422e-05
9.45352e-05
7.2924e-05
0.000100631
0.000105418
8.86468e-05
0.000155765
6.42629e-05
0.000208528
7.65153e-05
0.000308231
0.000127792
0.000422793
0.000201519
0.000626937
0.000368303
0.000800432
0.000616668
0.00110196
0.00113562
0.00150518
0.00223319
0.00141302
0.00245858
0.00195353
0.0212445
0.000156904
0.000902303
0.000187246
0.000427479
5.75636e-05
0.000119634
9.39193e-05
0.00015337
0.000109183
0.000166051
5.77884e-05
0.00016028
5.44066e-05
0.000132437
5.59014e-05
0.00013349
4.7044e-05
0.000161695
3.63627e-05
0.000172116
3.86816e-05
0.000149736
4.47169e-05
0.000164638
4.32433e-05
0.000113406
4.54344e-05
0.000109862
4.05607e-05
0.000102371
4.67764e-05
9.71431e-05
4.4528e-05
0.000108216
7.83344e-05
0.000103729
0.000107201
7.63156e-05
0.000141105
6.27887e-05
0.000220931
8.09267e-05
0.00031538
0.000138458
0.000443642
0.00021328
0.000547862
0.00043731
0.000706309
0.000713781
0.000917192
0.00126512
0.00128189
0.00190315
0.00157892
0.00255807
0.00177501
0.0218136
0.000514816
0.000147595
0.000955923
0.000151684
0.000272193
0.000168855
6.89346e-05
0.000127272
0.000112923
6.72543e-05
0.000116087
6.4077e-05
0.000111214
6.35519e-05
9.7392e-05
5.7815e-05
9.62174e-05
4.06571e-05
9.74994e-05
3.35603e-05
0.000123966
3.38644e-05
0.000120959
3.25457e-05
9.54797e-05
4.29994e-05
0.000114111
3.60457e-05
7.2792e-05
4.12102e-05
6.75939e-05
3.12685e-05
8.42106e-05
5.26515e-05
9.74887e-05
7.57908e-05
0.000103268
0.000105422
9.28974e-05
0.000156413
6.47435e-05
0.000210198
7.72974e-05
0.000313573
0.000132222
0.000429763
0.000197299
0.000630538
0.000373621
0.000782766
0.000612735
0.00112087
0.00110106
0.00152138
0.0021745
0.00139163
0.00238241
0.00195232
0.0198958
0.000146062
0.000887673
0.000167534
0.000394987
6.50006e-05
8.55835e-05
0.000100961
0.000145976
0.000116413
0.000161407
5.48347e-05
0.000156859
5.42929e-05
0.000121079
5.04628e-05
0.000120492
5.32273e-05
0.000129485
4.09928e-05
0.000139884
3.23041e-05
0.000156653
3.60311e-05
0.000146208
4.09699e-05
0.000138571
4.0432e-05
0.000109992
4.37068e-05
9.93447e-05
4.171e-05
8.69645e-05
4.60335e-05
9.44261e-05
4.71459e-05
0.000107456
8.13155e-05
0.000107169
0.000110514
8.68243e-05
0.000146748
6.53624e-05
0.000221308
8.16285e-05
0.00032125
0.000141051
0.000449306
0.000212102
0.000552853
0.000429624
0.000739095
0.000694526
0.00092245
0.00122185
0.00131491
0.00183578
0.00159976
0.00249267
0.00175976
0.0204601
0.000536481
0.000137544
0.000849352
0.000165784
0.00026116
0.000154525
7.69428e-05
0.000116217
0.000112694
5.75541e-05
0.000132474
4.32842e-05
0.00011597
4.35676e-05
8.62675e-05
4.90109e-05
8.98058e-05
4.96835e-05
9.05637e-05
3.76494e-05
9.98765e-05
2.92527e-05
0.000116111
3.30702e-05
0.000119928
3.27442e-05
0.000102534
4.23026e-05
0.000103595
3.82218e-05
6.46617e-05
4.00801e-05
6.78351e-05
3.13104e-05
8.28895e-05
5.27808e-05
9.79209e-05
7.88676e-05
0.000105256
0.000107999
9.85839e-05
0.000160234
6.73043e-05
0.000216818
8.06225e-05
0.000317872
0.000132479
0.000437052
0.000200865
0.000634973
0.000378099
0.00078587
0.000610931
0.00113263
0.00107577
0.0015277
0.00211575
0.00139906
0.00230857
0.00196826
0.0186211
0.000140485
0.000869081
0.000167665
0.000387524
7.84423e-05
7.11915e-05
0.000112169
0.000147784
0.000127387
0.000151487
5.71737e-05
0.000148402
5.92836e-05
0.000140531
5.09353e-05
0.000123007
5.1614e-05
0.000116924
5.02242e-05
0.000111073
4.04624e-05
0.000133425
3.06682e-05
0.000146755
3.1657e-05
0.000146754
4.03747e-05
0.000131252
4.14735e-05
0.00010898
4.47435e-05
9.10685e-05
4.33646e-05
7.89264e-05
4.60247e-05
8.87209e-05
4.91604e-05
0.000106115
8.16214e-05
0.000109349
0.000115958
9.28759e-05
0.000154093
6.62149e-05
0.000223335
8.34481e-05
0.000329085
0.00014058
0.000460334
0.000211392
0.000557746
0.000428145
0.000738539
0.000669671
0.000935085
0.00117919
0.00134184
0.00178208
0.00162648
0.00242741
0.00177155
0.0191204
0.000559264
0.000125879
0.000806618
0.00017196
0.000264281
0.000142268
9.98501e-05
9.6709e-05
0.000123852
5.31507e-05
0.000129539
4.33724e-05
0.000118357
3.28834e-05
9.9351e-05
3.35939e-05
9.24698e-05
4.16516e-05
8.40903e-05
4.19063e-05
9.10853e-05
3.15114e-05
9.78767e-05
2.69024e-05
0.000113535
3.21955e-05
0.000114815
3.39092e-05
9.97422e-05
3.8993e-05
0.00010025
3.66783e-05
6.50437e-05
3.8435e-05
6.66733e-05
3.25535e-05
8.22249e-05
5.37022e-05
9.88148e-05
8.31003e-05
0.000108845
0.000109113
9.91649e-05
0.000163657
7.20937e-05
0.000223626
8.46811e-05
0.000320154
0.000130267
0.00043262
0.000202768
0.000633617
0.000377447
0.000795168
0.000603921
0.00114069
0.0010458
0.00153899
0.00203521
0.00140948
0.00224176
0.00198521
0.0173747
0.00013485
0.000823241
0.00015664
0.000348891
8.3726e-05
6.38911e-05
0.000101077
0.000155139
0.000138347
0.000147418
7.08293e-05
0.000137574
6.32884e-05
0.00013997
5.69534e-05
0.000125547
4.36602e-05
0.000125883
4.62637e-05
0.000109013
4.61788e-05
0.000107188
3.77631e-05
0.000123243
2.89281e-05
0.00013826
2.95643e-05
0.000141451
3.87394e-05
0.000124823
4.09049e-05
0.000109183
4.30185e-05
8.7061e-05
4.32658e-05
7.67486e-05
4.48234e-05
8.62233e-05
5.11034e-05
0.000104959
8.52954e-05
0.000112688
0.000118564
9.45847e-05
0.000159935
6.753e-05
0.000228509
8.59814e-05
0.000335138
0.000137042
0.000456627
0.000211278
0.000562115
0.000425954
0.000744775
0.000657155
0.000947118
0.00113458
0.00136531
0.00174062
0.00165457
0.00236439
0.00178
0.0178085
0.000565652
0.000126403
0.000795984
0.0001627
0.000278399
0.000133932
0.000116558
8.74233e-05
0.000123685
6.08974e-05
0.000132691
4.84593e-05
0.000123375
3.7581e-05
8.38773e-05
2.48949e-05
9.38175e-05
2.72147e-05
7.67209e-05
3.78372e-05
8.17583e-05
3.24144e-05
8.76709e-05
2.80135e-05
9.00145e-05
2.43214e-05
0.000100577
3.42123e-05
0.000116146
3.33119e-05
0.000100001
3.82102e-05
9.02737e-05
3.62826e-05
6.4042e-05
3.6462e-05
6.40029e-05
3.38019e-05
7.70434e-05
5.94553e-05
9.93283e-05
8.73592e-05
0.000110145
0.000119397
0.00010306
0.000170744
7.73683e-05
0.000229001
8.32904e-05
0.000333502
0.000127694
0.000456138
0.000209671
0.000640263
0.000379479
0.000800317
0.000596808
0.00114721
0.00102458
0.00153992
0.00196567
0.00142242
0.00217629
0.00202744
0.0161648
0.000125291
0.000825285
0.000143703
0.000317035
8.90335e-05
6.21664e-05
8.87987e-05
0.00016283
0.00015235
0.000148839
7.14205e-05
0.000145022
7.07253e-05
0.000110865
5.35453e-05
0.000129524
5.19191e-05
0.000108825
4.05391e-05
0.000113753
4.37705e-05
0.000104063
3.85429e-05
0.000105578
3.69366e-05
0.000125353
2.70076e-05
0.000137844
2.8262e-05
0.000138386
3.86053e-05
0.000122475
4.0338e-05
0.000104705
4.04797e-05
8.08155e-05
4.25212e-05
7.31825e-05
4.29096e-05
8.41361e-05
5.41371e-05
0.000103625
8.97176e-05
0.000114088
0.000122788
9.47923e-05
0.000166578
6.96562e-05
0.00023436
8.78911e-05
0.000347046
0.000132784
0.000464434
0.000212144
0.000562634
0.000424104
0.000754861
0.000641049
0.000957808
0.00109868
0.00141111
0.00169407
0.00169024
0.0023107
0.00180746
0.0165543
0.000569039
0.000124214
0.000773758
0.000154519
0.00029076
0.000127441
0.000123538
8.18792e-05
0.000136749
5.47082e-05
0.000126953
4.38106e-05
0.000122714
3.99342e-05
0.000119285
3.00776e-05
7.63142e-05
2.47171e-05
9.02622e-05
2.12971e-05
7.28229e-05
3.06549e-05
8.07988e-05
2.86012e-05
8.32456e-05
2.52064e-05
9.04528e-05
2.15574e-05
9.75467e-05
3.16398e-05
0.000117483
3.19454e-05
0.000101394
3.27131e-05
8.93648e-05
3.62448e-05
6.44546e-05
3.5684e-05
6.49014e-05
3.51105e-05
7.73977e-05
6.10759e-05
9.94405e-05
9.32117e-05
0.000111857
0.000126363
0.000106953
0.000176223
7.95669e-05
0.000239955
8.20276e-05
0.000340882
0.000125035
0.000462558
0.000214861
0.000646235
0.000380418
0.00080291
0.000589636
0.00115734
0.00100315
0.00152479
0.00190656
0.00143958
0.00211151
0.00207228
0.0149834
0.000115662
0.00083345
0.000147001
0.000315078
9.21314e-05
6.63544e-05
8.46438e-05
0.000169518
0.000142883
0.000161193
7.37403e-05
0.000151165
7.99982e-05
0.000104977
6.7734e-05
0.00010169
4.72061e-05
0.00012252
4.57821e-05
0.000104253
4.20128e-05
9.83189e-05
3.76233e-05
9.65892e-05
3.49533e-05
0.000102439
3.41339e-05
0.000120042
2.48072e-05
0.000133695
2.8339e-05
0.000138933
3.62998e-05
0.000117897
3.95519e-05
0.000103027
3.90047e-05
7.66454e-05
4.11319e-05
7.21054e-05
4.28437e-05
8.21267e-05
5.77562e-05
0.000104888
9.50691e-05
0.000117599
0.000126777
9.74279e-05
0.000172283
7.24058e-05
0.000240237
8.74514e-05
0.000358635
0.000128474
0.000475249
0.000212588
0.000569469
0.000426261
0.0007623
0.000625658
0.000969391
0.0010592
0.00143586
0.00165508
0.00172927
0.00224678
0.00185798
0.0153117
0.00056184
0.000127081
0.000798586
0.000132742
0.000285468
0.00012163
0.000133538
7.39355e-05
0.000138183
5.12589e-05
0.000127367
4.39608e-05
0.000118656
4.02116e-05
0.0001284
2.92181e-05
0.000105599
2.43727e-05
6.95613e-05
2.4767e-05
9.8812e-05
1.89005e-05
7.37578e-05
2.72285e-05
7.58467e-05
2.56928e-05
8.28291e-05
2.14201e-05
9.09332e-05
2.06092e-05
9.93335e-05
3.04063e-05
0.000116354
2.98285e-05
0.000100484
3.02353e-05
8.93248e-05
3.58844e-05
6.25977e-05
3.39123e-05
6.10164e-05
3.58117e-05
7.76791e-05
6.24986e-05
0.000100186
9.83654e-05
0.000112646
0.00013304
0.000110073
0.000183053
8.31235e-05
0.000249179
8.32976e-05
0.000349003
0.000123924
0.0004674
0.000219071
0.000647763
0.000381861
0.000807663
0.00058192
0.00116476
0.000956323
0.00153744
0.00186004
0.00144843
0.00202595
0.00211532
0.0138534
0.000103495
0.000825779
0.000151036
0.000276147
9.25989e-05
6.99277e-05
7.97431e-05
0.000160767
0.000135377
0.000177566
8.7825e-05
0.000139907
8.57048e-05
0.000122756
7.50259e-05
9.25148e-05
6.04062e-05
9.73514e-05
4.62911e-05
0.000111463
4.16804e-05
8.44418e-05
3.67035e-05
9.09434e-05
3.52976e-05
9.43526e-05
3.29121e-05
0.000101829
3.1463e-05
0.000116201
2.23162e-05
0.000132496
2.697e-05
0.000135864
3.51632e-05
0.000116602
3.82534e-05
9.96945e-05
3.78772e-05
7.13433e-05
3.85898e-05
6.65576e-05
4.18728e-05
8.00072e-05
6.02209e-05
0.000107989
9.98036e-05
0.000118192
0.000134081
9.86438e-05
0.00018059
7.52133e-05
0.000250183
8.55035e-05
0.000365807
0.000125514
0.000484638
0.000212677
0.000580095
0.000426334
0.000768956
0.000606309
0.000981261
0.00104389
0.00145724
0.00161529
0.00178703
0.00216467
0.00187272
0.0141647
0.00055389
0.000131186
0.000789405
0.00010924
0.000269018
0.000115706
0.00013788
7.37857e-05
0.00013526
5.46251e-05
0.000118007