/*--------------------------------*- C++ -*----------------------------------*\
| =========                 |                                                 |
| \\      /  F ield         | OpenFOAM: The Open Source CFD Toolbox           |
|  \\    /   O peration     | Version:  2206                                  |
|   \\  /    A nd           | Website:  www.openfoam.com                      |
|    \\/     M anipulation  |                                                 |
\*---------------------------------------------------------------------------*/
FoamFile
{
    version     2.0;
    format      ascii;
    arch        "LSB;label=32;scalar=64";
    class       volVectorField;
    location    "170";
    object      rhoUMean;
}
// * * * * * * * * * * * * * * * * * * * * * * * * * * * * * * * * * * * * * //

dimensions      [1 -2 -1 0 0 0 0];

internalField   nonuniform List<vector> 
93840
(
(1.46056 -1.50632 1.76296e-17)
(0.548135 0.234739 7.26154e-18)
(1.21301 -1.31202 1.48777e-17)
(0.958463 -0.424702 -3.68575e-18)
(0.632778 0.21542 5.22124e-18)
(0.981246 -1.0364 1.69649e-17)
(0.793391 0.266274 4.68292e-17)
(0.881662 -0.152157 7.28718e-18)
(0.640527 0.204582 1.32499e-18)
(0.945254 -0.748631 3.06791e-17)
(1.0172 -0.101074 -2.35166e-17)
(0.993493 0.0976262 9.50912e-17)
(0.970853 -0.134732 2.27824e-17)
(0.740658 0.181941 -4.51739e-17)
(0.868966 -0.460363 -9.57272e-18)
(0.832011 0.0484797 -1.38827e-16)
(0.924052 -0.0835405 -6.42172e-17)
(0.816608 0.0964995 6.14875e-17)
(0.914061 -0.204312 1.81926e-17)
(0.774542 0.0869667 -5.9289e-17)
(0.817215 -0.287178 6.6523e-18)
(0.85934 -0.0130051 -1.28627e-17)
(0.822307 0.0982777 -1.71329e-16)
(0.938575 -0.0761145 -1.10621e-16)
(0.920531 0.165022 7.44965e-17)
(0.819231 -0.0614053 -5.92303e-18)
(0.834764 0.0538027 5.28939e-17)
(0.825635 -0.212315 2.53209e-18)
(0.778426 0.0442482 4.86919e-17)
(0.848031 -0.0762807 2.96829e-17)
(0.870263 0.0956633 -1.63483e-16)
(0.930201 -0.0904268 -1.6926e-16)
(0.891777 0.0801886 1.026e-16)
(0.903503 -0.0141573 -2.80064e-17)
(0.872065 0.0509033 -2.97998e-17)
(0.820697 -0.184562 -1.44788e-17)
(0.843842 -0.0110663 6.17321e-17)
(0.780134 0.0976364 6.15834e-17)
(0.862269 -0.0603172 1.61051e-17)
(0.854631 0.0688985 -1.64973e-16)
(0.863954 -0.0579582 -3.13145e-16)
(0.92188 0.0565353 -7.08911e-17)
(0.8821 -0.00317988 -8.17277e-17)
(0.878206 0.047074 3.55661e-17)
(0.827121 -0.162218 8.13459e-18)
(0.789553 0.0459038 -6.46422e-18)
(0.862638 -0.0399916 7.47149e-17)
(0.808337 0.088792 1.01942e-16)
(0.806593 -0.0474388 1.84043e-16)
(0.846158 0.0729707 1.10496e-16)
(0.881202 -0.00834628 -4.19261e-18)
(0.866244 0.0442547 1.18218e-16)
(0.880722 -0.0327218 2.92277e-17)
(0.877971 0.036282 -1.85167e-17)
(0.808984 -0.143257 -2.07298e-19)
(0.862193 -0.0108834 1.23365e-16)
(0.794685 0.0620078 3.74029e-18)
(0.87229 -0.0483005 6.92724e-17)
(0.816029 0.0656466 1.10257e-16)
(0.856473 -0.0432824 1.20986e-16)
(0.898998 0.0494328 8.79996e-17)
(0.84783 0.000489772 -1.08462e-16)
(0.90142 0.0521975 -7.13365e-17)
(0.88747 -0.00209227 -9.12902e-17)
(0.886118 0.036038 1.84425e-17)
(0.823076 -0.145214 5.94261e-18)
(0.804461 0.0458343 -9.61083e-17)
(0.859823 -0.0185323 1.08458e-16)
(0.812952 0.0791718 -1.43419e-17)
(0.869694 -0.0285578 3.5021e-17)
(0.877363 0.0694226 4.67405e-17)
(0.853886 -0.000612791 -7.37976e-17)
(0.834467 0.0331443 -3.49029e-17)
(0.867555 0.00139861 -6.54537e-17)
(0.870659 0.0402845 8.63243e-17)
(0.88526 -0.00915954 1.93849e-17)
(0.881429 0.0384005 -1.47503e-17)
(0.807457 -0.106501 1.93341e-18)
(0.840004 -0.0100903 -2.27031e-17)
(0.799841 0.062818 -1.39924e-16)
(0.86439 -0.0303718 1.13789e-16)
(0.849841 0.0500369 4.74645e-17)
(0.886442 -0.025622 2.36367e-17)
(0.879366 0.0425057 1.94119e-17)
(0.830566 0.00294613 1.49585e-16)
(0.885294 0.0270934 1.59478e-16)
(0.855029 0.00947561 -6.72735e-17)
(0.890829 0.0473251 -5.71886e-17)
(0.892369 0.000122099 -8.03577e-17)
(0.894427 0.0389473 1.11049e-17)
(0.824142 -0.122673 5.38797e-18)
(0.805581 0.0457 -1.02501e-16)
(0.839522 -0.0150178 -6.34006e-17)
(0.812252 0.0708368 -1.74677e-16)
(0.849107 -0.016037 6.08732e-17)
(0.839484 0.0593114 9.06632e-18)
(0.823414 0.00399946 1.60957e-17)
(0.852268 0.0329942 -4.57385e-17)
(0.870723 0.0220523 -6.23251e-17)
(0.836597 0.0276197 -1.69287e-17)
(0.870414 0.00251871 -8.27181e-17)
(0.86992 0.0420353 6.69567e-17)
(0.88166 -0.00296311 2.47448e-17)
(0.887794 0.0321626 -1.20386e-17)
(0.805037 -0.0831776 2.01278e-18)
(0.853406 -0.00934622 5.96301e-17)
(0.807497 0.0632612 -7.37069e-17)
(0.852203 -0.0174497 1.32958e-17)
(0.83697 0.0485905 -2.59386e-16)
(0.862391 -0.0153945 -1.66851e-16)
(0.854962 0.0372298 -1.02868e-16)
(0.859857 0.00796241 -7.44309e-17)
(0.89183 0.0342548 -4.83376e-17)
(0.845078 0.0175735 7.10293e-17)
(0.879563 0.0324144 1.76363e-16)
(0.855044 0.00903624 -5.20574e-17)
(0.886687 0.0460194 -3.43103e-17)
(0.889479 0.0040429 -8.15606e-17)
(0.898559 0.0352488 6.94825e-18)
(0.826247 -0.103697 6.36746e-18)
(0.813377 0.0462199 -1.09435e-17)
(0.853495 -0.012246 8.08582e-17)
(0.807881 0.0661161 -8.42561e-17)
(0.812659 -0.0136144 7.36027e-17)
(0.811789 0.0496678 -5.49429e-17)
(0.807851 0.00831375 -4.04757e-18)
(0.824881 0.0311134 9.70009e-17)
(0.820331 0.0230739 4.80856e-17)
(0.841881 0.0222989 -2.24114e-17)
(0.873465 0.0217553 -5.43853e-17)
(0.844225 0.0272137 -2.03568e-18)
(0.86577 0.00469745 -8.95853e-17)
(0.871019 0.0382126 5.06014e-17)
(0.879633 0.000547665 2.54951e-17)
(0.891269 0.0288732 -9.9398e-18)
(0.803892 -0.0646651 2.44178e-18)
(0.860459 -0.00872442 7.69842e-17)
(0.81893 0.0626614 -3.03071e-18)
(0.851433 -0.0110215 -2.68124e-17)
(0.826231 0.0469224 -1.70861e-16)
(0.837386 -0.00841496 6.78942e-17)
(0.830225 0.0324923 1.36183e-16)
(0.833838 0.00754066 1.4895e-16)
(0.84009 0.0301845 -1.08359e-17)
(0.847393 0.0130606 -4.81702e-17)
(0.888205 0.0323948 -5.86836e-17)
(0.852549 0.0197578 3.41586e-17)
(0.878127 0.0364177 1.74398e-16)
(0.85553 0.0104192 -4.15502e-17)
(0.883463 0.0436816 -2.54054e-17)
(0.886166 0.00724983 -8.17661e-17)
(0.901482 0.0318595 2.72212e-18)
(0.828886 -0.0876708 7.24706e-18)
(0.823324 0.0450306 -6.73719e-17)
(0.852984 -0.00974106 9.0522e-17)
(0.813012 0.0612366 9.93008e-17)
(0.825961 -0.0104949 1.62628e-16)
(0.824711 0.0468834 5.72874e-18)
(0.813397 0.0123006 -1.13398e-16)
(0.812711 0.0287005 -2.67442e-16)
(0.803696 0.0216421 -1.37691e-16)
(0.819912 0.0247209 5.77103e-17)
(0.821728 0.026953 5.55608e-17)
(0.838023 0.0178296 -1.01979e-17)
(0.874583 0.0212598 -4.78698e-17)
(0.84909 0.0260838 1.00734e-17)
(0.860875 0.00790756 -8.93401e-17)
(0.872239 0.0359088 4.1239e-17)
(0.877727 0.00380275 2.52708e-17)
(0.893801 0.0258443 -8.35332e-18)
(0.803674 -0.0494595 1.80282e-18)
(0.869976 -0.00782722 3.23313e-17)
(0.830084 0.0623224 -9.66611e-17)
(0.863406 -0.00464444 9.32821e-17)
(0.834051 0.0465366 1.79718e-16)
(0.852619 -0.000162905 1.89253e-16)
(0.846743 0.0304737 -4.16811e-17)
(0.846701 0.00778535 6.87839e-18)
(0.834221 0.0284287 6.40324e-17)
(0.832178 0.0108032 1.77722e-16)
(0.836476 0.0295571 2.50679e-17)
(0.841182 0.0154405 -3.8318e-17)
(0.884314 0.0327759 -6.68083e-17)
(0.855501 0.0197764 5.86708e-18)
(0.877454 0.0367003 1.75988e-16)
(0.857017 0.0114588 -3.74873e-17)
(0.881816 0.0417569 -2.50806e-17)
(0.883827 0.0106793 -7.93477e-17)
(0.903439 0.0288776 -3.91206e-19)
(0.831459 -0.0740161 7.09595e-18)
(0.821838 0.0440407 -5.38579e-17)
(0.866515 -0.00659942 3.10244e-17)
(0.82483 0.0566148 -8.92939e-17)
(0.839324 -0.00650195 -1.58793e-17)
(0.835951 0.043388 -1.85067e-17)
(0.828179 0.01472 -7.84746e-17)
(0.83143 0.0285802 5.17825e-17)
(0.826389 0.0224709 -2.63494e-17)
(0.817748 0.0255551 -2.49764e-16)
(0.805238 0.0253075 -1.86804e-16)
(0.817685 0.0214238 2.88265e-17)
(0.82299 0.0294591 5.75867e-17)
(0.836097 0.0168394 -3.25616e-18)
(0.873303 0.0218967 -4.5972e-17)
(0.852835 0.0258817 1.90935e-17)
(0.858605 0.00908446 -9.05789e-17)
(0.87121 0.0335806 3.84278e-17)
(0.87642 0.00691976 2.24524e-17)
(0.895444 0.0233206 -6.97708e-18)
(0.803844 -0.0361476 1.41127e-18)
(0.87287 -0.00841843 -4.35269e-17)
(0.832893 0.0606069 -2.62344e-17)
(0.868492 0.00276803 6.4275e-17)
(0.842449 0.0450702 -9.44439e-17)
(0.86104 0.00626436 -7.75151e-17)
(0.846881 0.0292058 1.11673e-16)
(0.851736 0.00928059 3.12106e-16)
(0.850617 0.026156 1.81919e-16)
(0.849149 0.0102801 2.37531e-17)
(0.836474 0.0271947 3.41088e-17)
(0.8314 0.0127021 1.76912e-16)
(0.834569 0.0294263 4.60529e-17)
(0.83706 0.0158769 -2.54657e-17)
(0.880145 0.0328719 -6.83238e-17)
(0.85844 0.0214997 -1.45541e-17)
(0.877505 0.0366367 1.78829e-16)
(0.858318 0.012971 -3.28054e-17)
(0.878576 0.0385931 -1.57892e-17)
(0.881673 0.0142518 -7.2407e-17)
(0.904727 0.0264845 -3.53389e-18)
(0.834134 -0.062165 8.10489e-18)
(0.822271 0.0448104 3.11155e-16)
(0.8675 -0.00399219 1.86653e-17)
(0.827038 0.0518888 -8.4124e-17)
(0.850275 -0.00294119 -1.46338e-17)
(0.848267 0.0410408 -7.60961e-17)
(0.844404 0.0171318 -1.79707e-17)
(0.848565 0.0273096 -6.61284e-17)
(0.836458 0.0241425 -1.33912e-16)
(0.835038 0.0255447 5.38405e-17)
(0.829854 0.0261544 2.27247e-17)
(0.820519 0.0239775 -2.22808e-16)
(0.807577 0.0271844 -2.08232e-16)
(0.815487 0.019451 7.88007e-18)
(0.823867 0.0307314 5.45063e-17)
(0.836567 0.0165561 -2.68002e-18)
(0.871902 0.0225969 -4.60153e-17)
(0.855054 0.0260531 2.52301e-17)
(0.857772 0.0108883 -9.02094e-17)
(0.872568 0.0312623 2.8352e-17)
(0.875937 0.0096615 1.89791e-17)
(0.896503 0.0211559 -6.78939e-18)
(0.804304 -0.0241239 2.25667e-18)
(0.869275 -0.00840636 -4.31751e-16)
(0.838473 0.0587969 1.61918e-16)
(0.878146 0.0100649 -9.68434e-17)
(0.850901 0.0447 -2.05584e-16)
(0.871425 0.0111405 9.12322e-18)
(0.856296 0.0289776 -4.51552e-17)
(0.868626 0.0114065 -1.26859e-16)
(0.858268 0.0242987 -1.55227e-16)
(0.853042 0.0101231 1.99036e-16)
(0.851071 0.0251337 2.10546e-16)
(0.849778 0.0119589 4.42116e-17)
(0.837942 0.0267886 2.01826e-17)
(0.831174 0.0135373 1.69073e-16)
(0.833547 0.0295802 5.95232e-17)
(0.834031 0.0161492 -1.56516e-17)
(0.875542 0.0321946 -6.31712e-17)
(0.860492 0.0212814 -3.04072e-17)
(0.877155 0.0359471 1.79248e-16)
(0.858914 0.0149196 -2.88899e-17)
(0.876709 0.0364244 -1.44009e-17)
(0.880613 0.0172941 -7.16766e-17)
(0.905485 0.0245225 -5.59182e-18)
(0.837221 -0.0511592 7.68332e-18)
(0.828483 0.0450816 6.44033e-17)
(0.862533 -0.00124253 -4.88865e-16)
(0.832042 0.0479078 1.3812e-16)
(0.864932 0.000685474 8.423e-17)
(0.858305 0.0396855 2.59345e-17)
(0.857369 0.0200416 8.66723e-17)
(0.858511 0.026403 -1.01005e-16)
(0.849245 0.0256991 -5.10386e-17)
(0.852964 0.0244184 -3.20611e-17)
(0.839281 0.0274708 -1.49509e-16)
(0.836847 0.0243538 3.13169e-17)
(0.832115 0.0279313 4.84575e-17)
(0.822269 0.0230154 -1.9619e-16)
(0.810126 0.0282974 -2.18223e-16)
(0.813996 0.0182495 -9.03173e-18)
(0.824219 0.032199 5.33272e-17)
(0.836534 0.0168561 -7.60959e-19)
(0.870919 0.0236888 -4.63933e-17)
(0.856898 0.0264389 3.19591e-17)
(0.856916 0.0121734 -8.93303e-17)
(0.871491 0.0292485 2.49916e-17)
(0.875402 0.0119317 1.85655e-17)
(0.897094 0.0190036 -5.38528e-18)
(0.805506 -0.0127532 5.3657e-18)
(0.875352 -0.00713353 7.44279e-17)
(0.846848 0.0575878 1.68699e-16)
(0.890147 0.0148455 -3.16149e-16)
(0.861654 0.0442839 2.08293e-16)
(0.882642 0.0145713 1.28116e-16)
(0.86595 0.0283241 -6.98148e-17)
(0.879015 0.0129297 -1.20889e-16)
(0.865856 0.0231785 -3.78999e-17)
(0.871071 0.0113955 -1.00632e-16)
(0.861459 0.0229989 -2.02633e-16)
(0.853313 0.0106832 1.37519e-16)
(0.850615 0.0239688 2.14656e-16)
(0.849792 0.0126284 5.87191e-17)
(0.838859 0.0265836 9.61717e-18)
(0.830919 0.0140174 1.64295e-16)
(0.830107 0.026097 6.5576e-17)
(0.830443 0.016514 -4.65578e-18)
(0.869653 0.031523 -5.49826e-17)
(0.862495 0.0207735 -4.46629e-17)
(0.876285 0.0346605 1.74749e-16)
(0.860087 0.0165453 -2.40036e-17)
(0.875417 0.0347561 -1.20358e-17)
(0.880115 0.0196584 -7.18227e-17)
(0.906261 0.0218183 -7.92001e-18)
(0.826554 -0.0252774 4.41175e-18)
(0.82994 0.0451687 1.35633e-16)
(0.861517 0.00156194 7.89474e-17)
(0.840331 0.0462059 2.1193e-16)
(0.876894 0.00533314 -4.25029e-16)
(0.866355 0.0386989 -2.18647e-16)
(0.870487 0.023983 -1.71585e-16)
(0.871823 0.0265554 -1.00692e-16)
(0.867482 0.02828 8.33799e-17)
(0.865543 0.024454 -5.91876e-17)
(0.851898 0.0278292 -6.12704e-17)
(0.854607 0.0233349 -2.17083e-17)
(0.841784 0.029289 -1.46558e-16)
(0.838254 0.0238406 1.85014e-17)
(0.83489 0.0291483 6.57745e-17)
(0.823518 0.0226821 -1.78706e-16)
(0.812381 0.0292948 -2.26034e-16)
(0.817917 0.0210942 -1.8148e-17)
(0.825962 0.0322797 4.83191e-17)
(0.839252 0.0193985 -7.07116e-18)
(0.870147 0.0244169 -4.63373e-17)
(0.858733 0.0270893 3.9349e-17)
(0.856793 0.01427 -9.06704e-17)
(0.870692 0.0274521 2.22991e-17)
(0.875255 0.0141186 1.56409e-17)
(0.898188 0.0141679 -4.93696e-18)
(0.824512 -0.0256473 6.07878e-18)
(0.87027 -0.00608532 7.90857e-17)
(0.8432 0.056146 1.44204e-16)
(0.881434 0.018982 9.4927e-17)
(0.861155 0.04183 3.79891e-16)
(0.881139 0.0172369 -6.94191e-17)
(0.864455 0.0271188 5.06818e-17)
(0.878049 0.0144917 2.72226e-16)
(0.868901 0.0217511 3.35779e-16)
(0.879354 0.0128568 5.62976e-18)
(0.868446 0.0216239 -1.59439e-17)
(0.871947 0.0115434 -7.68321e-17)
(0.863571 0.0225773 -2.23723e-16)
(0.853814 0.011309 9.49705e-17)
(0.850282 0.0236343 2.14e-16)
(0.849754 0.0134822 7.39389e-17)
(0.839787 0.0261889 2.19232e-18)
(0.830924 0.0155706 1.56758e-16)
(0.828442 0.0258807 7.39364e-17)
(0.827565 0.0168918 1.01373e-17)
(0.860033 0.0280329 -3.96448e-17)
(0.86341 0.0199077 -5.68893e-17)
(0.875606 0.0338603 1.7361e-16)
(0.860831 0.0181924 -1.97291e-17)
(0.874304 0.0329234 -1.03879e-17)
(0.880195 0.0218578 -6.48831e-17)
(0.902374 0.0202263 -1.0275e-17)
(0.830353 -0.0252881 4.82127e-18)
(0.820497 0.0446343 -4.85078e-16)
(0.85176 0.00420611 -6.50683e-17)
(0.834401 0.0448887 7.88141e-17)
(0.873346 0.0112684 -1.12053e-17)
(0.861648 0.0370353 3.4272e-16)
(0.863515 0.0261951 3.7141e-16)
(0.859095 0.0257191 3.18508e-16)
(0.859791 0.0294142 2.1643e-17)
(0.870212 0.0240942 -1.02044e-16)
(0.868491 0.0294885 7.44273e-17)
(0.868205 0.023596 -3.79034e-17)
(0.853754 0.0288788 -6.52127e-17)
(0.855148 0.0225928 -1.8793e-17)
(0.843202 0.0303658 -1.45996e-16)
(0.839278 0.0237123 7.75807e-18)
(0.836531 0.0296428 7.70744e-17)
(0.824594 0.0225013 -1.61965e-16)
(0.813629 0.0296709 -2.31802e-16)
(0.816816 0.0205086 -2.82506e-17)
(0.827897 0.0312826 4.119e-17)
(0.844849 0.0229999 -1.42819e-17)
(0.870625 0.0250505 -5.19248e-17)
(0.860805 0.0265931 4.43038e-17)
(0.856908 0.0164246 -8.77035e-17)
(0.869824 0.027016 2.08355e-17)
(0.877373 0.0170335 1.15517e-17)
(0.892142 0.0212605 -3.31931e-18)
(0.824835 -0.0141388 6.12437e-18)
(0.861823 -0.00536299 5.57405e-16)
(0.83018 0.054042 -2.97851e-16)
(0.870451 0.0223318 6.46308e-18)
(0.852918 0.0398558 1.82085e-16)
(0.870736 0.0202106 -8.23599e-17)
(0.851901 0.0260407 -1.63079e-16)
(0.867164 0.0163647 -3.24906e-16)
(0.860842 0.0211068 -4.17896e-16)
(0.874648 0.0137018 -2.16916e-17)
(0.86892 0.0203993 3.305e-16)
(0.879258 0.012812 5.60946e-17)
(0.870029 0.0212028 -2.41217e-18)
(0.872339 0.0118194 -5.71637e-17)
(0.865436 0.0224602 -2.28837e-16)
(0.854144 0.0140372 4.49169e-17)
(0.850054 0.0229245 2.11855e-16)
(0.849749 0.0142992 8.4335e-17)
(0.839884 0.0254488 -1.37171e-17)
(0.831389 0.0160403 1.47626e-16)
(0.827665 0.026764 7.5636e-17)
(0.826418 0.0178959 1.84277e-17)
(0.856754 0.0287351 -3.34384e-17)
(0.863399 0.0203417 -6.413e-17)
(0.875427 0.0326246 1.70154e-16)
(0.861005 0.0194922 -1.61205e-17)
(0.872664 0.0307592 -7.96584e-18)
(0.881861 0.0198995 -6.11363e-17)
(0.902637 0.0236446 -1.25245e-17)
(0.831303 -0.0149884 5.32443e-18)
(0.817822 0.0439689 -1.42479e-16)
(0.839122 0.00585103 6.61544e-16)
(0.822536 0.0428027 -2.21885e-16)
(0.860737 0.0164794 -1.6615e-16)
(0.848164 0.0348357 -5.71824e-18)
(0.8525 0.0278806 1.3322e-16)
(0.854664 0.0254903 8.98732e-17)
(0.859055 0.0298704 1.85729e-16)
(0.85922 0.0235687 3.84924e-16)
(0.857788 0.0303378 1.19383e-16)
(0.869087 0.023531 -9.55102e-17)
(0.868894 0.0298838 7.28422e-17)
(0.869578 0.0232942 -2.43553e-17)
(0.855387 0.0295165 -6.73585e-17)
(0.855446 0.0219654 -1.5738e-17)
(0.845757 0.0282887 -1.26907e-16)
(0.839501 0.0232259 1.67353e-18)
(0.837946 0.0295429 8.60189e-17)
(0.826133 0.0227583 -1.36465e-16)
(0.815477 0.0299573 -2.264e-16)
(0.816356 0.0206539 -3.29449e-17)
(0.827732 0.0298644 3.87129e-17)
(0.844186 0.0231858 -1.21351e-17)
(0.869869 0.0255728 -5.43175e-17)
(0.862802 0.0267197 5.19595e-17)
(0.857296 0.0180524 -8.79025e-17)
(0.869554 0.0275751 1.70104e-17)
(0.875959 0.0176339 1.14888e-17)
(0.895394 0.0194077 -4.16713e-18)
(0.826572 -0.00521896 6.2532e-18)
(0.856639 -0.00510319 -1.44656e-16)
(0.815984 0.0520667 -3.70384e-16)
(0.851549 0.026065 3.62038e-16)
(0.838312 0.0363997 -4.51605e-16)
(0.859626 0.0231302 -5.67842e-16)
(0.843099 0.0254431 -5.90206e-16)
(0.860684 0.0185303 -5.39654e-16)
(0.851581 0.0208088 -3.53159e-16)
(0.862874 0.0141947 -3.49936e-16)
(0.859206 0.0197296 -4.95497e-16)
(0.872692 0.0132657 -1.31682e-16)
(0.86903 0.0198595 3.05151e-16)
(0.879179 0.0127258 8.01846e-17)
(0.871201 0.0210129 9.06998e-18)
(0.871282 0.0126651 -4.19849e-17)
(0.866236 0.0224778 -2.31402e-16)
(0.85446 0.01469 1.79379e-17)
(0.850393 0.0229805 2.03533e-16)
(0.849624 0.0149665 9.36556e-17)
(0.835917 0.0241048 -4.59876e-17)
(0.83085 0.0160864 1.20739e-16)
(0.827186 0.0271833 7.41627e-17)
(0.825955 0.0181985 2.27951e-17)
(0.855318 0.0292551 -2.87936e-17)
(0.862794 0.0208425 -7.22011e-17)
(0.872555 0.0304271 1.51831e-16)
(0.86156 0.0205418 -1.68155e-17)
(0.871516 0.030455 -6.24013e-18)
(0.880581 0.0207554 -6.04492e-17)
(0.904243 0.0218537 -1.2171e-17)
(0.833268 -0.00759215 5.665e-18)
(0.822955 0.0428123 3.4267e-16)
(0.823476 0.00694927 -4.30797e-17)
(0.803587 0.0403518 -2.55646e-16)
(0.840192 0.0216284 7.15058e-16)
(0.833115 0.0331325 4.35583e-16)
(0.842831 0.0297319 2.70582e-16)
(0.844723 0.0257502 2.95198e-16)
(0.843421 0.029742 4.44887e-16)
(0.848524 0.0226 2.72321e-16)
(0.856112 0.02938 1.76306e-16)
(0.859288 0.023107 3.81185e-16)
(0.857055 0.0306481 1.67214e-16)
(0.868194 0.0232057 -8.39083e-17)
(0.869194 0.0297371 7.13359e-17)
(0.870582 0.0230444 -1.43254e-17)
(0.858577 0.0285854 -6.47423e-17)
(0.856184 0.022208 -1.46557e-17)
(0.84676 0.0284191 -1.24194e-16)
(0.839819 0.0229601 -3.8448e-18)
(0.839786 0.0293556 9.5813e-17)
(0.833101 0.0237529 -9.69727e-17)
(0.817739 0.0296847 -2.12047e-16)
(0.815737 0.0204539 -4.09349e-17)
(0.826831 0.0293331 3.72915e-17)
(0.843976 0.0230341 -1.00664e-17)
(0.869483 0.025972 -5.69739e-17)
(0.867548 0.0275677 6.99849e-17)
(0.85824 0.0191326 -8.28028e-17)
(0.868811 0.0272484 1.66801e-17)
(0.874718 0.0189344 1.14739e-17)
(0.896405 0.0183285 -5.46533e-18)
(0.828534 0.00186138 6.41198e-18)
(0.861287 -0.00446963 -5.14863e-16)
(0.816055 0.0482236 2.99584e-16)
(0.837359 0.0289435 -7.49595e-17)
(0.823487 0.0357493 -4.62369e-16)
(0.84772 0.0252133 4.48284e-16)
(0.833221 0.0248075 4.29733e-16)
(0.848811 0.0198772 4.38038e-16)
(0.83786 0.0204959 4.09561e-17)
(0.854111 0.0146763 -4.175e-16)
(0.850546 0.020606 -3.55502e-16)
(0.861529 0.0135819 -3.24518e-16)
(0.857817 0.0205706 -4.60477e-16)
(0.871732 0.0125297 -1.91485e-16)
(0.868675 0.0203081 2.72055e-16)
(0.878123 0.013527 9.56617e-17)
(0.872122 0.0208835 1.68522e-17)
(0.871038 0.0130569 -3.00486e-17)
(0.86682 0.0221095 -2.29969e-16)
(0.85507 0.0153616 -5.24246e-18)
(0.850131 0.0226346 1.91657e-16)
(0.849377 0.0161384 1.02641e-16)
(0.834718 0.0240772 -4.33794e-17)
(0.830723 0.0161586 1.07758e-16)
(0.826734 0.0273156 6.92128e-17)
(0.824894 0.0188328 2.6444e-17)
(0.854237 0.0294445 -2.61782e-17)
(0.862746 0.0217028 -7.86735e-17)
(0.872039 0.0299849 1.49262e-16)
(0.862286 0.0210849 -1.65132e-17)
(0.870968 0.0295771 -6.39714e-18)
(0.879026 0.0219272 -5.66542e-17)
(0.904104 0.0214118 -1.43677e-17)
(0.835318 -0.00104382 1.38243e-18)
(0.820982 0.0409737 1.01633e-16)
(0.818907 0.00925389 -5.29012e-16)
(0.800579 0.0386713 3.20574e-16)
(0.83291 0.0249397 6.53421e-17)
(0.827435 0.0334714 -8.40502e-16)
(0.83917 0.0320839 -7.13471e-16)
(0.836072 0.026594 -5.65294e-16)
(0.835974 0.0299344 -5.26325e-16)
(0.841966 0.0229488 -1.40144e-16)
(0.841521 0.0294342 3.49254e-16)
(0.847319 0.022069 2.90586e-16)
(0.854578 0.0285687 1.64822e-16)
(0.860481 0.0210573 3.17842e-16)
(0.85598 0.0301043 1.77674e-16)
(0.867789 0.0225282 -6.33562e-17)
(0.870587 0.0292672 7.19106e-17)
(0.871086 0.0230385 -7.29308e-18)
(0.859773 0.0290471 -6.52591e-17)
(0.856943 0.0223984 -1.55291e-17)
(0.847679 0.0286139 -1.24929e-16)
(0.840533 0.0234124 -5.88228e-18)
(0.84065 0.0290998 9.90217e-17)
(0.833944 0.0235739 -8.56849e-17)
(0.81932 0.0296894 -2.09315e-16)
(0.816794 0.0207093 -3.71755e-17)
(0.826287 0.0287047 3.65028e-17)
(0.843556 0.0232104 -7.72649e-18)
(0.868772 0.0258722 -6.26738e-17)
(0.868468 0.0273808 7.29715e-17)
(0.858845 0.0202295 -8.21552e-17)
(0.868626 0.0262694 1.43735e-17)
(0.875101 0.0203596 1.01806e-17)
(0.896438 0.0179622 -5.24602e-18)
(0.830896 0.00790128 1.06012e-17)
(0.854366 -0.00387194 -2.91758e-17)
(0.813286 0.0434614 1.6715e-16)
(0.825323 0.0304272 -3.69928e-16)
(0.813692 0.0359691 4.29212e-16)
(0.840399 0.0269992 7.2093e-16)
(0.829075 0.0241751 4.65453e-16)
(0.842572 0.0208722 3.7841e-16)
(0.834039 0.0205754 5.05743e-16)
(0.846532 0.01517 7.09556e-16)
(0.837628 0.0208822 2.91711e-16)
(0.851855 0.0135135 -3.25885e-16)
(0.849788 0.0208077 -3.52847e-16)
(0.86018 0.0143991 -3.04498e-16)
(0.857322 0.0206741 -4.65586e-16)
(0.867999 0.0144856 -1.65165e-16)
(0.868667 0.0198008 2.55271e-16)
(0.878065 0.0134131 1.0976e-16)
(0.872949 0.0205764 2.48067e-17)
(0.871183 0.013019 -1.81859e-17)
(0.867012 0.021609 -2.25434e-16)
(0.855595 0.0157402 -2.01432e-17)
(0.849919 0.0224468 1.8466e-16)
(0.848569 0.0172742 1.09325e-16)
(0.835485 0.0240382 -4.56727e-17)
(0.830567 0.0164225 9.94799e-17)
(0.825848 0.0272599 6.1305e-17)
(0.824142 0.0200497 2.92677e-17)
(0.852866 0.0294665 -2.22548e-17)
(0.862849 0.0223921 -8.16755e-17)
(0.8725 0.0298556 1.47971e-16)
(0.862738 0.0218516 -1.41387e-17)
(0.869708 0.0290445 -2.44802e-18)
(0.879117 0.0225427 -6.02857e-17)
(0.903529 0.021286 -1.5898e-17)
(0.837454 0.00489934 2.62393e-18)
(0.822168 0.0390851 1.33039e-16)
(0.812614 0.0117854 -4.97502e-17)
(0.800519 0.0377041 1.21858e-16)
(0.83121 0.0279655 -7.32584e-16)
(0.823841 0.0340997 -2.22483e-16)
(0.835196 0.0342259 2.26281e-16)
(0.828904 0.0268776 1.63008e-16)
(0.830945 0.030343 -8.85819e-18)
(0.834999 0.0228283 -3.14131e-16)
(0.833428 0.0287348 -5.67589e-16)
(0.841323 0.02239 -2.57476e-16)
(0.840996 0.0287983 2.93458e-16)
(0.84698 0.021653 2.96922e-16)
(0.853995 0.0280208 1.50094e-16)
(0.859698 0.0210693 3.10278e-16)
(0.86081 0.0276597 1.32459e-16)
(0.866894 0.0225477 -5.83361e-17)
(0.870456 0.0291555 6.97118e-17)
(0.871428 0.022915 -2.06714e-18)
(0.860831 0.0291365 -6.37452e-17)
(0.857768 0.02265 -1.76722e-17)
(0.848592 0.0285994 -1.2409e-16)
(0.84113 0.023459 -1.062e-17)
(0.842747 0.0282713 1.05631e-16)
(0.834491 0.0236337 -7.2743e-17)
(0.820607 0.0298763 -2.06671e-16)
(0.818011 0.0223745 -2.85562e-17)
(0.825729 0.0275787 3.63269e-17)
(0.843062 0.0232908 -5.35649e-18)
(0.868259 0.0259671 -6.52033e-17)
(0.869215 0.0272065 7.51453e-17)
(0.859366 0.0214067 -8.03844e-17)
(0.868772 0.0256406 9.91775e-18)
(0.875334 0.0209875 1.14132e-17)
(0.896076 0.0180556 -5.41602e-18)
(0.833363 0.0133784 1.45867e-17)
(0.851181 -0.00378347 1.1558e-16)
(0.810015 0.0379596 2.76072e-16)
(0.816312 0.0320457 -1.69698e-17)
(0.813195 0.036095 2.60552e-16)
(0.835253 0.0293227 -5.06138e-16)
(0.826057 0.0239115 -4.72853e-16)
(0.836872 0.0217422 -2.99721e-16)
(0.829894 0.0207723 -2.45505e-16)
(0.838717 0.0157177 -9.38297e-17)
(0.833955 0.021152 2.95484e-16)
(0.845251 0.0140819 6.90102e-16)
(0.837529 0.0212697 3.88835e-16)
(0.849215 0.0140645 -2.46744e-16)
(0.849081 0.0203971 -3.4287e-16)
(0.859456 0.0143456 -2.787e-16)
(0.857004 0.0217022 -4.40918e-16)
(0.866093 0.0141952 -2.01037e-16)
(0.868451 0.019837 2.30353e-16)
(0.877584 0.0136167 1.16876e-16)
(0.873698 0.0204808 3.12294e-17)
(0.870967 0.0144908 -1.39426e-17)
(0.865601 0.0218398 -2.00124e-16)
(0.85555 0.0163136 -4.3279e-17)
(0.847282 0.0231604 1.53558e-16)
(0.84844 0.0174515 1.151e-16)
(0.836259 0.0240725 -4.58664e-17)
(0.830219 0.0166241 8.04557e-17)
(0.825405 0.0261981 5.60246e-17)
(0.823203 0.0204161 3.18036e-17)
(0.851434 0.0297137 -2.12981e-17)
(0.86287 0.0229537 -8.99985e-17)
(0.873088 0.0296097 1.45604e-16)
(0.863 0.0225577 -9.81659e-18)
(0.868816 0.0282496 -4.86754e-19)
(0.87916 0.0229848 -5.57473e-17)
(0.902736 0.0212112 -1.72511e-17)
(0.839655 0.0104041 4.20189e-18)
(0.823145 0.0370998 8.27897e-17)
(0.814364 0.0129731 2.51186e-18)
(0.800132 0.0368019 9.66249e-17)
(0.821849 0.0310936 8.98535e-18)
(0.816336 0.0347999 6.62769e-16)
(0.831099 0.0359276 3.71365e-16)
(0.827659 0.0274189 -4.74265e-17)
(0.834931 0.0311563 -1.27724e-17)
(0.835138 0.0229558 1.8935e-16)
(0.830274 0.0287812 1.16539e-16)
(0.834911 0.022119 -2.08562e-16)
(0.833095 0.0280302 -5.38577e-16)
(0.840708 0.0215837 -3.2363e-16)
(0.842639 0.0274876 2.36041e-16)
(0.846596 0.0216468 2.98925e-16)
(0.853696 0.0272578 1.39305e-16)
(0.859617 0.0207254 2.65451e-16)
(0.860435 0.0274155 1.44973e-16)
(0.866503 0.0227871 -4.42047e-17)
(0.871376 0.028916 7.0767e-17)
(0.871623 0.0226359 1.68411e-18)
(0.862188 0.0278175 -5.76381e-17)
(0.860832 0.0221285 -4.02537e-17)
(0.850089 0.0278333 -1.17171e-16)
(0.844796 0.0227795 1.09e-17)
(0.8432 0.0283314 1.10487e-16)
(0.834935 0.0236698 -6.43042e-17)
(0.822388 0.0297468 -1.93583e-16)
(0.817892 0.0223514 -3.66021e-17)
(0.825751 0.027303 3.25052e-17)
(0.842642 0.0233222 -5.30817e-19)
(0.86765 0.0261215 -6.44328e-17)
(0.869779 0.027036 7.70446e-17)
(0.85995 0.0222531 -8.19546e-17)
(0.868166 0.0257047 8.00586e-18)
(0.875639 0.0211361 7.30159e-18)
(0.895611 0.0180491 -6.03416e-18)
(0.835948 0.018501 8.94861e-18)
(0.859505 -0.00332629 -2.7404e-16)
(0.824987 0.0355925 -8.99156e-17)
(0.829522 0.0337672 -1.21205e-16)
(0.821387 0.0361521 9.27175e-17)
(0.83609 0.0320718 -6.73905e-17)
(0.833643 0.0246048 1.72532e-16)
(0.849665 0.0232067 1.94727e-16)
(0.848845 0.0219834 1.08647e-16)
(0.849027 0.0169865 -2.07613e-17)
(0.834803 0.0215867 -2.24631e-16)
(0.838445 0.0147151 -1.77641e-16)
(0.833778 0.0214457 1.92994e-16)
(0.844266 0.0137085 6.52031e-16)
(0.837235 0.0217926 4.30691e-16)
(0.847201 0.0145873 -1.88614e-16)
(0.848635 0.0201891 -3.30794e-16)
(0.858623 0.014298 -2.6465e-16)
(0.857029 0.0213125 -4.11697e-16)
(0.865949 0.0140747 -2.27427e-16)
(0.86732 0.0209534 1.89087e-16)
(0.877047 0.0134871 1.23176e-16)
(0.873993 0.0206661 3.56146e-17)
(0.870755 0.0148408 -5.0652e-18)
(0.865049 0.0221176 -1.94253e-16)
(0.855486 0.0170904 -6.14854e-17)
(0.846725 0.0231123 1.45294e-16)
(0.848249 0.0182439 1.21603e-16)
(0.836876 0.0240736 -4.48379e-17)
(0.829706 0.0181026 5.30644e-17)
(0.825237 0.0265681 5.15634e-17)
(0.822789 0.0202423 3.40674e-17)
(0.850288 0.0299356 -1.70197e-17)
(0.862822 0.0235188 -9.51317e-17)
(0.873813 0.029384 1.42136e-16)
(0.863363 0.0230649 -1.28352e-17)
(0.868369 0.0280758 -4.09889e-18)
(0.879141 0.0233172 -4.70399e-17)
(0.902087 0.0209392 -1.84123e-17)
(0.841811 0.0155683 9.24813e-18)
(0.833795 0.0353466 -6.1717e-18)
(0.8307 0.0133486 -1.75595e-16)
(0.813852 0.037015 1.09996e-16)
(0.830197 0.0343561 1.83007e-16)
(0.829859 0.0354783 1.56557e-16)
(0.845846 0.0377852 -3.76809e-16)
(0.847666 0.0283605 -4.09791e-16)
(0.855132 0.0322997 -2.19785e-16)
(0.846843 0.0234431 -2.31173e-16)
(0.837891 0.0289788 -1.29859e-16)
(0.837039 0.0224346 1.46475e-16)
(0.830391 0.0282693 1.53602e-16)
(0.83488 0.0220628 -1.43617e-16)
(0.832898 0.0275737 -5.13713e-16)
(0.840259 0.0213982 -3.42628e-16)
(0.843575 0.0264442 1.96825e-16)
(0.846032 0.0217612 3.01836e-16)
(0.853724 0.0267817 1.31374e-16)
(0.859362 0.0211519 2.44059e-16)
(0.860067 0.0269462 1.51511e-16)
(0.868166 0.0216451 -1.4889e-17)
(0.871371 0.0288243 7.09594e-17)
(0.872268 0.0225312 8.0879e-18)
(0.862804 0.0276588 -5.50036e-17)
(0.861687 0.0219972 -4.2454e-17)
(0.851171 0.0271741 -1.18047e-16)
(0.845173 0.0226289 5.73458e-18)
(0.844324 0.0276771 1.11543e-16)
(0.835331 0.0238309 -5.55903e-17)
(0.824113 0.0284309 -1.68716e-16)
(0.818068 0.0223876 -3.67059e-17)
(0.825187 0.027512 3.43455e-17)
(0.842174 0.0239608 4.69892e-19)
(0.867049 0.026347 -6.65579e-17)
(0.870165 0.0268171 7.69356e-17)
(0.860595 0.0229119 -7.08986e-17)
(0.86774 0.0258999 1.11702e-17)
(0.875645 0.0216855 -3.24936e-20)
(0.895225 0.0178706 -1.02134e-17)
(0.838626 0.0230493 7.40514e-20)
(0.870485 -0.0030439 -2.53287e-16)
(0.841514 0.0333485 -7.77701e-17)
(0.8411 0.0356506 -9.06195e-17)
(0.832857 0.0363444 1.25792e-16)
(0.850915 0.0347214 -2.07553e-16)
(0.856672 0.0258453 -1.17418e-16)
(0.872976 0.0247234 -1.46492e-16)
(0.868166 0.0235231 -9.11711e-17)
(0.8656 0.0181189 2.92298e-17)
(0.854811 0.0229174 1.17505e-16)
(0.852448 0.0160539 3.51199e-17)
(0.837549 0.0218125 -1.9081e-16)
(0.838452 0.0140986 -2.00382e-16)
(0.833531 0.0216056 1.28769e-16)
(0.841931 0.0150357 5.42375e-16)
(0.837428 0.0214277 4.46456e-16)
(0.846034 0.0145925 -1.47092e-16)
(0.848279 0.0200901 -3.23527e-16)
(0.856217 0.014876 -2.32596e-16)
(0.856423 0.0214973 -3.6039e-16)
(0.865337 0.0143972 -2.46327e-16)
(0.866361 0.0214356 1.62481e-16)
(0.876824 0.0132959 1.28101e-16)
(0.874205 0.0206469 4.00704e-17)
(0.871016 0.0152287 5.44579e-19)
(0.865289 0.0221825 -1.91243e-16)
(0.85558 0.0175842 -7.58374e-17)
(0.846889 0.0233715 1.3842e-16)
(0.848185 0.0184106 1.28723e-16)
(0.837494 0.0241772 -4.25486e-17)
(0.829732 0.0184073 4.19938e-17)
(0.825364 0.0269387 5.08158e-17)
(0.822295 0.0202801 3.61333e-17)
(0.849268 0.0292786 -1.2737e-17)
(0.862754 0.0241346 -9.97149e-17)
(0.874243 0.0291767 1.47044e-16)
(0.86372 0.0235428 -1.07484e-17)
(0.867961 0.0278496 -2.91801e-18)
(0.878563 0.0235334 -4.34721e-17)
(0.901293 0.0207858 -1.70798e-17)
(0.84421 0.0202197 1.26702e-17)
(0.841675 0.0338799 1.29399e-16)
(0.849727 0.0135531 -3.31875e-16)
(0.832003 0.0374099 -1.12062e-16)
(0.847616 0.0373474 -3.85664e-16)
(0.850962 0.0360935 -3.65282e-16)
(0.865093 0.0393321 -3.1012e-16)
(0.866473 0.0289863 1.34908e-16)
(0.867355 0.033027 3.50453e-16)
(0.861708 0.0235964 1.64751e-16)
(0.858133 0.0298206 -9.00142e-17)
(0.851525 0.0226241 -2.23765e-16)