/*--------------------------------*- C++ -*----------------------------------*\
| =========                 |                                                 |
| \\      /  F ield         | OpenFOAM: The Open Source CFD Toolbox           |
|  \\    /   O peration     | Version:  2206                                  |
|   \\  /    A nd           | Website:  www.openfoam.com                      |
|    \\/     M anipulation  |                                                 |
\*---------------------------------------------------------------------------*/
FoamFile
{
    version     2.0;
    format      ascii;
    arch        "LSB;label=32;scalar=64";
    class       volScalarField;
    location    "170";
    object      T;
}
// * * * * * * * * * * * * * * * * * * * * * * * * * * * * * * * * * * * * * //

dimensions      [0 0 0 1 0 0 0];

internalField   nonuniform List<scalar> 
93840
(
0.998258
1.05713
1.0037
1.06975
1.04789
1.01496
0.913689
1.05949
1.02268
1.01664
0.976133
0.983328
1.04206
0.996396
1.02606
0.984949
0.998463
1.02545
1.05943
1.01324
1.03983
1.01501
0.992751
1.00425
0.961334
1.09877
1.00846
1.03584
1.01006
1.00761
0.975935
0.998306
0.961473
1.05274
1.0178
1.0361
1.02188
1.00352
1.02643
0.989173
1.02309
0.970681
1.04392
1.02199
1.04171
1.00715
1.01107
0.991852
1.01421
0.960915
1.03694
0.980655
1.03875
1.03029
1.04678
1.02395
0.997875
1.00486
0.99987
1.01369
0.961318
1.02449
1.01518
1.03774
1.02184
1.05108
1.00674
1.01873
0.986839
1.01548
0.971673
1.04483
0.943516
1.023
0.995297
1.0398
1.03795
1.05271
1.02805
1.00064
1.01622
0.995795
1.00873
0.969836
1.02124
1.00211
1.01392
1.00923
1.03645
1.01609
1.05354
1.00964
1.02603
0.990211
1.01326
1.00735
1.03602
0.95348
1.02387
0.993921
1.01772
0.987747
1.03059
1.02297
1.05497
1.02579
1.00871
1.01278
1.00941
1.00239
0.976214
1.02114
0.984111
1.0118
1.01003
1.01524
1.00191
1.03717
1.01035
1.05688
1.00638
1.02561
1.00718
1.01727
1.00851
1.04267
0.979242
1.03388
0.993477
1.00694
0.993896
1.01028
0.987665
1.0401
1.01757
1.05872
1.02482
1.00702
1.01588
1.00543
1.0158
0.972455
1.0277
1.00317
1.0151
1.00396
1.01018
0.997913
1.0168
0.98525
1.03744
1.00714
1.06049
1.0059
1.02202
1.00158
1.01985
0.988436
1.04468
1.00186
1.0306
1.00021
1.0229
0.988863
1.01003
0.994386
1.01531
0.988932
1.03824
1.0188
1.06265
1.025
1.00087
1.01695
0.997071
1.02257
0.984948
1.02225
0.999275
1.02377
1.0042
1.01653
0.996064
1.01546
0.987419
1.01174
0.994612
1.03485
1.01546
1.06414
1.00936
1.02786
0.986865
1.02152
0.996457
1.0361
0.996731
1.03079
1.00709
1.03013
0.998573
1.02489
0.985203
1.0121
0.985028
1.01245
0.994478
1.03278
1.02059
1.06541
1.02249
1.00736
1.02299
1.00566
1.02023
0.989423
1.02231
0.995744
1.02113
0.998689
1.02073
1.0055
1.01626
0.999709
1.01424
0.997223
1.01817
1.0027
1.03152
1.01783
1.06641
1.00606
1.02512
0.984781
1.01314
0.992151
1.02699
0.994781
1.02652
1.00081
1.02569
1.00473
1.0351
0.996546
1.02264
0.984029
1.01122
0.981031
1.01725
1.00671
1.02965
1.02003
1.06725
1.02128
1.00767
1.02164
1.00439
1.01341
0.979173
1.01907
0.993563
1.02184
0.996044
1.02155
1.00593
1.02296
1.01188
1.01167
0.997675
1.00723
0.994188
1.01893
1.011
1.02803
1.01938
1.06804
1.00424
1.01759
0.99805
1.00597
0.998047
1.02747
1.00211
1.02317
0.995364
1.02613
1.00705
1.02351
1.00691
1.0288
1.00076
1.02038
0.991202
1.0063
0.985224
1.01634
1.00643
1.02659
1.02184
1.06889
1.0212
1.00469
1.01523
0.996442
1.00944
0.968085
1.0123
0.982923
1.01254
0.999039
1.02273
1.00456
1.02153
1.00435
1.02205
1.00483
1.01485
1.00599
1.00984
0.990472
1.01266
1.01478
1.02529
1.0127
1.06968
1.00204
1.01739
0.999173
1.01155
0.999001
1.0282
1.00111
1.0211
1.0014
1.02206
1.00117
1.02761
1.0038
1.03074
0.999818
1.03372
1.0052
1.0153
0.994624
1.01306
0.990099
1.01163
1.01542
1.02422
1.01741
1.0705
1.02574
0.999376
1.00986
0.981832
1.00754
0.980979
1.01161
0.989124
1.00659
0.990502
1.01374
0.9982
1.02217
1.00254
1.02415
1.00447
1.02117
1.01211
1.01627
0.991098
1.01195
1.00205
1.0123
0.99859
1.024
1.01013
1.07139
1.00972
1.02824
0.997276
1.0173
0.982775
1.02583
0.995322
1.01826
1.0017
1.02042
1.00147
1.02223
1.00238
1.02946
1.00031
1.03228
1.00186
1.03475
1.00421
1.01912
0.99588
1.00977
0.99297
1.01163
0.995477
1.02509
1.01813
1.07254
1.02542
1.00885
1.019
0.997917
1.01339
0.998394
1.01342
1.00392
1.01012
0.994704
1.00932
0.993906
1.01249
1.00038
1.0237
1.00454
1.02442
1.0001
1.02104
1.0023
1.01708
1.00444
1.01256
0.99175
1.01522
1.00636
1.02685
1.01192
1.07426
1.01507
1.02376
0.985514
1.01715
0.981881
1.02547
0.997506
1.0182
1.0023
1.01866
1.00519
1.02379
1.00433
1.02857
1.00193
1.02914
1.00199
1.03308
1.00156
1.03698
0.99983
1.01523
0.999295
1.01223
0.98957
1.01625
1.00419
1.02872
1.0223
1.07528
1.02328
1.0242
1.0284
0.992082
1.01479
0.997928
1.01021
1.0107
1.01312
1.01089
1.01168
0.998846
1.01239
0.996514
1.01366
1.00571
1.02149
1.00406
1.02856
1.00204
1.02296
1.00773
1.01415
1.00011
1.01114
0.989724
1.01631
1.01268
1.03208
1.00128
1.07561
1.01227
1.025
0.998721
1.01915
0.993865
1.02368
1.00836
1.01755
1.00787
1.01437
1.00692
1.0165
1.00792
1.02425
1.00563
1.02934
1.00168
1.02848
1.00521
1.03634
1.00382
1.03729
1.00816
1.0166
1.00018
1.01271
0.9907
1.01606
1.00268
1.03735
1.00903
1.07555
1.02578
1.02013
1.02971
1.00736
1.00806
0.991437
1.00763
1.01107
1.0089
1.00966
1.01422
1.01069
1.01592
1.00409
1.01343
0.999059
1.01497
1.00571
1.02137
1.00536
1.02606
1.00481
1.02495
1.01525
1.01579
0.998282
1.01362
0.991668
1.01345
1.00571
1.0366
0.999991
1.07529
1.01044
1.03427
1.00823
1.01072
1.00428
1.02548
1.01574
1.02068
1.01488
1.01421
1.01453
1.01351
1.01173
1.01941
1.009
1.02215
1.00621
1.0282
1.00572
1.02844
1.00598
1.03704
1.00757
1.0317
1.00677
1.01484
0.997015
1.01225
0.99775
1.0147
1.00285
1.03596
1.01174
1.07535
1.02932
1.0184
1.03066
1.00733
1.00885
0.992267
1.01249
1.01401
1.00793
1.01481
1.00815
1.01328
1.0159
1.01412
1.01769
1.0069
1.01366
1.00321
1.01403
1.00874
1.02134
1.00623
1.02796
1.00645
1.02389
1.00903
1.01762
0.993825
1.01094
0.997181
1.01186
1.00773
1.03545
1.00297
1.07568
1.01152
1.0379
1.0071
1.01378
1.00017
1.02392
1.01796
1.01915
1.01968
1.01708
1.01661
1.01375
1.01811
1.01429
1.01587
1.01662
1.01126
1.01802
1.00573
1.02713
1.00757
1.03072
1.00882
1.03159
1.00726
1.02722
1.0081
1.0213
1.00008
1.00912
0.995762
1.01318
0.996638
1.03519
1.01423
1.07666
1.03104
1.0201
1.032
1.00154
1.01301
1.00192
1.01628
1.01589
1.01082
1.01793
1.00787
1.01361
1.00874
1.01364
1.01428
1.01583
1.01607
1.00765
1.0154
1.00458
1.01573
1.01121
1.0265
1.00948
1.02713
1.00575
1.02532
1.00657
1.02117
1.00166
1.00831
0.993806
1.01133
0.996196
1.03571
1.00177
1.07781
1.01243
1.03815
1.0064
1.01878
0.990638
1.01752
1.01302
1.01087
1.01667
1.01957
1.01767
1.01927
1.01659
1.01372
1.01865
1.01582
1.01706
1.0146
1.01012
1.01735
1.00658
1.02552
1.0109
1.02475
1.00816
1.02965
1.00675
1.02829
1.00576
1.0199
1.00244
1.00801
0.992191
1.01216
0.993839
1.03752
1.01517
1.07931
1.02959
1.01983
1.02697
1.00023
1.01937
1.00876
1.01417
1.01661
1.00975
1.02038
1.00832
1.02049
1.00765
1.01576
1.01018
1.01523
1.01409
1.01332
1.01483
1.0082
1.01372
1.00727
1.01601
1.01019
1.02338
1.01193
1.02581
1.00735
1.02704
1.00741
1.01804
1.00512
1.00833
0.991528
1.0099
0.991122
1.04126
1.00307
1.0803
1.01353
1.03545
1.00304
1.01816
0.991582
1.01092
1.0107
1.00087
1.00927
1.01184
1.01786
1.01941
1.01716
1.01905
1.01444
1.01462
1.02004
1.01483
1.01686
1.01413
1.01024
1.01685
1.01009
1.0258
1.0109
1.02305
1.01108
1.0294
1.00955
1.02878
1.00666
1.02207
1.00268
1.01266
0.99099
1.01567
0.994392
1.04109
1.01112
1.0811
1.02497
1.01863
1.02928
1.00133
1.02249
1.00673
1.01111
1.01039
1.00619
1.02134
1.01026
1.0205
1.01016
1.02051
1.00889
1.0166
1.01107
1.01619
1.01506
1.01373
1.01383
1.00843
1.01293
1.00669
1.01411
1.01218
1.02617
1.01309
1.02617
1.00977
1.0255
1.00731
1.02025
1.00145
1.01087
0.989954
1.01923
0.996712
1.04236
0.999541
1.08138
1.01194
1.02996
0.992164
1.01326
0.989309
0.999982
1.01115
0.996249
1.00584
1.00296
1.01363
1.01094
1.02011
1.01862
1.01559
1.01829
1.01624
1.01569
1.01777
1.01512
1.0184
1.01275
1.01225
1.01594
1.01122
1.02597
1.01224
1.0256
1.01357
1.02927
1.00944
1.02918
1.00914
1.0235
1.00132
1.01355
0.988644
1.0221
0.996585
1.04354
1.00959
1.08182
1.02123
1.01246
1.03249
1.00291
1.02181
1.00532
1.00945
1.00758
1.00124
1.01786
1.00919
1.01963
1.01027
1.0177
1.01252
1.01869
1.00711
1.01823
1.01279
1.01771
1.01218
1.01325
1.01452
1.01065
1.01309
1.00804
1.01414
1.01479
1.02571
1.01288
1.0259
1.00914
1.02575
1.00328
1.02256
0.99979
1.01291
0.986759
1.02107
0.995576
1.0438
0.999536
1.08192
1.00892
1.02799
0.995007
1.00983
0.99096
0.993084
1.01129
0.996329
1.0066
1.00368
1.00754
1.00698
1.01134
1.01367
1.01734
1.01746
1.01405
1.01925
1.01473
1.01325
1.01733
1.01489
1.01685
1.01332
1.01198
1.01354
1.01271
1.02598
1.0145
1.02535
1.01236
1.02821
1.00942
1.02922
1.01185
1.02261
1.00171
1.0184
0.985568
1.02597
0.994682
1.04629
1.0078
1.08232
1.01767
1.00588
1.02816
1.00419
1.02026
1.007
1.00927
1.008
1.00149
1.01274
1.00605
1.017
1.00797
1.01828
1.00936
1.01877
1.01185
1.01791
1.00872
1.0172
1.01343
1.01707
1.01262
1.01311
1.01425
1.01128
1.01213
1.00901
1.01254
1.01368
1.0256
1.01558
1.02569
1.01151
1.0249
1.00904
1.02705
0.999907
1.01927
0.983555
1.02768
0.994405
1.04801
0.999089
1.08253
1.00564
1.02765
0.995229
1.00712
0.995057
0.995149
1.01368
0.999261
1.01028
1.00188
1.00617
1.00403
1.00678
1.00672
1.00965
1.00742
1.01527
1.01558
1.01422
1.01825
1.01308
1.01363
1.01611
1.01391
1.01595
1.0123
1.01305
1.01257
1.01273
1.02432
1.01325
1.02394
1.01476
1.02808
1.01016
1.02795
1.01029
1.02735
1.00123
1.02231
0.985129
1.03217
0.993876
1.05062
1.00745
1.08304
1.01934
1.00622
1.02609
1.00237
1.02051
1.01109
1.0088
1.00902
1.0017
1.00761
1.00381
1.01364
1.00587
1.01676
1.00983
1.0153
1.01249
1.01725
1.01184
1.01592
1.00933
1.01708
1.01345
1.01747
1.013
1.01447
1.01258
1.01058
1.01099
1.01006
1.01286
1.01344
1.02268
1.01587
1.02816
1.01363
1.02503
1.00865
1.02896
0.999266
1.02102
0.985972
1.03058
0.990787
1.04836
0.998971
1.0834
1.00467
1.02821
0.997224
1.00626
1.00646
0.999856
1.01534
1.00327
1.00941
1.00447
1.00835
1.00398
1.00608
1.00279
1.00583
1.00688
1.00866
1.00791
1.01465
1.0151
1.01384
1.01556
1.01235
1.01214
1.01725
1.01333
1.01696
1.01145
1.01431
1.01353
1.01318
1.02373
1.01385
1.0246
1.01383
1.02945
1.01095
1.02766
1.00846
1.02672
1.00086
1.02517
0.985945
1.02657
0.989919
1.04941
1.00471
1.08406
1.02317
1.01261
1.02528
1.00131
1.02334
1.01066
1.00526
1.00995
0.999107
1.00534
1.00102
1.01087
1.00435
1.01342
1.0059
1.01447
1.00947
1.01394
1.00931
1.01588
1.01119
1.01767
1.01091
1.01748
1.01241
1.01615
1.01243
1.01622
1.01316
1.01302
1.01253
1.01311
1.01227
1.01472
1.02355
1.01757
1.02802
1.01266
1.02684
1.01223
1.02992
1.00054
1.02359
0.990241
1.03119
0.991374
1.05163
0.998801
1.08457
1.00628
1.02815
0.99644
1.01061
1.01647
1.00182
1.01579
1.00659
1.00666
1.00576
1.01192
1.00759
1.01111
1.00651
1.00898
1.00448
1.00815
1.00691
1.00767
1.00863
1.01194
1.01344
1.01492
1.01487
1.014
1.01196
1.01836
1.01262
1.01736
1.01091
1.01304
1.01223
1.01456
1.02322
1.01601
1.0255
1.01443
1.02957
1.01149
1.02795
1.00696
1.02912
1.00135
1.02345
0.988327
1.03201
0.992498
1.05024
1.00532
1.08526
1.02456
1.01728
1.0295
0.997322
1.02194
1.00894
1.00326
1.0097
0.996098
1.00342
1.00015
1.01042
1.00503
1.01138
1.00302
1.00911
1.00774
1.01179
1.00677
1.01148
1.00865
1.01565
1.01228
1.01445
1.01038
1.01943
1.01317
1.01607
1.01174
1.01719
1.0134
1.01229
1.01163
1.01235
1.01341
1.0148
1.02402
1.01752
1.02869
1.01292
1.02706
1.01549
1.03203
1.00575
1.02359
0.990762
1.03235
0.986151
1.05019
0.997925
1.08574
1.00851
1.02769
0.998407
1.01979
1.02553
1.00416
1.01599
1.00718
1.00471
1.00222
1.01204
1.00785
1.01414
1.01005
1.01071
1.0101
1.00922
1.00545
1.00735
1.00575
1.00914
1.00732
1.01124
1.01166
1.01594
1.01451
1.01485
1.01295
1.01822
1.01186
1.01688
1.01116
1.0133
1.01152
1.01496
1.0236
1.01722
1.02433
1.01306
1.02741
1.01212
1.02555
1.01272
1.02976
1.00672
1.02317
0.989205
1.02899
0.995056
1.05123
1.00484
1.08632
1.0241
1.01932
1.03304
0.996173
1.02095
1.00788
1.00244
1.0093
0.994351
1.00104
0.99841
1.00677
1.00358
1.01142
1.00734
1.01335
1.00547
1.01325
1.00535
1.00945
1.00423
1.00986
1.01093
1.01352
1.01089
1.01401
1.01035
1.01885
1.01416
1.01888
1.01288
1.01742
1.01227
1.01369
1.01058
1.01244
1.01433
1.01621
1.02387
1.01851
1.02725
1.015
1.02471
1.01788
1.02979
1.00749
1.02308
0.988774
1.03232
0.984682
1.05179
0.999017
1.08667
1.00765
1.02554
1.01052
1.02333
1.02803
1.00262
1.01398
1.0057
1.00571
0.998172
1.0103
1.00554
1.01387
1.01046
1.01368
1.00781
1.01278
1.00825
1.00876
1.00533
1.00635
1.00476
1.00965
1.00782
1.01153
1.01145
1.01451
1.01267
1.01601
1.01173
1.01805
1.01164
1.01814
1.01166
1.01343
1.01092
1.0168
1.02221
1.01722
1.02359
1.01631
1.0266
1.01432
1.02481
1.01254
1.02911
1.0104
1.02659
0.987593
1.03826
0.991562
1.04994
1.00503
1.08703
1.02437
1.01689
1.02972
1.0026
1.02568
1.00994
1.00552
1.00951
0.997003
0.998111
0.996472
1.00214
1.00186
1.00865
1.00501
1.01063
1.00612
1.01117
1.008
1.011
1.005
1.00879
1.003
1.01072
1.00785
1.01313
1.01093
1.01454
1.00932
1.01623
1.01479
1.01872
1.01268
1.01627
1.01096
1.0137
1.01133
1.01145
1.01459
1.01714
1.02327
1.01887
1.02654
1.01743
1.0262
1.02082
1.02837
1.01119
1.02717
0.985999
1.02837
0.989512
1.05345
0.997803
1.0871
1.00869
1.02588
1.01357
1.02237
1.0238
0.996708
1.0106
1.00259
1.00588
0.997044
1.00794
1.00235
1.01237
1.00736
1.01605
1.00964
1.01441
1.00803
1.01356
1.00819
1.00961
1.00356
1.00759
1.00442
1.0102
1.00685
1.01322
1.01143
1.01394
1.01204
1.01604
1.01286
1.0191
1.01003
1.0175
1.0108
1.01577
1.01162
1.01739
1.01713
1.01739
1.0236
1.01457
1.02552
1.01271
1.02545
1.01436
1.03036
1.00747
1.03022
0.985996
1.04035
0.991141
1.04875
1.00745
1.0873
1.02328
1.01489
1.03074
1.00415
1.02156
1.01089
1.00922
1.01044
1.00186
0.999843
0.997184
0.99907
0.999229
1.00415
1.00286
1.00788
1.00494
1.01063
1.00696
1.01117
1.00734
1.00939
1.00515
1.0073
1.00244
1.01011
1.00765
1.01259
1.00984
1.01326
1.00979
1.0157
1.01234
1.01961
1.01227
1.01661
1.01312
1.01394
1.01118
1.01359
1.01707
1.01949
1.02329
1.02012
1.02521
1.02021
1.02471
1.0202
1.02946
1.01212
1.02827
0.987379
1.02427
0.992033
1.05314
0.997841
1.08732
1.00904
1.0252
1.01647
1.01935
1.02233
0.994407
1.00915
0.999715
1.00716
0.994849
1.00477
0.999432
1.00803
1.00199
1.01131
1.00754
1.01614
1.01057
1.01387
1.00881
1.01315
1.00861
1.01013
1.00248
1.0088
1.00366
1.01122
1.00724
1.01479
1.01195
1.01379
1.01224
1.01718
1.01315
1.01925
1.01011
1.01865
1.01115
1.01705
1.01131
1.01749
1.01595
1.01909
1.02205
1.01618
1.02633
1.01281
1.02627
1.01481
1.03105
1.00883
1.03017
0.989224
1.04317
0.990667
1.05178
1.00492
1.08754
1.02013
1.01317
1.0296
1.00729
1.02032
1.01407
1.01082
1.01204
1.00594
1.00183
1.0019
0.996813
0.998764
0.998743
1.00123
1.00501
1.00484
1.00933
1.00564
1.01253
1.00785
1.01097
1.00627
1.00899
1.00321
1.00778
1.00436
1.00958
1.00868
1.01215
1.00885
1.01242
1.00916
1.01719
1.0121
1.01971
1.01187
1.01688
1.01188
1.01376
1.0114
1.01498
1.01628
1.01573
1.02316
1.02023
1.0279
1.02063
1.02459
1.01969
1.03141
1.01189
1.02793
0.991421
1.02817
0.990617
1.05456
0.998953
1.08758
1.00891
1.02277
1.01614
1.01882
1.0188
0.993122
1.00684
1.00087
1.00921
0.99477
1.00243
0.99614
1.00534
1.00174
1.00739
1.00418
1.01097
1.00749
1.01665
1.01264
1.01554
1.01066
1.01116
1.00921
1.00848
1.00219
1.00869
1.00354
1.01044
1.00701
1.01357
1.01137
1.01481
1.01142
1.01826
1.01127
1.01875
1.01227
1.01802
1.00987
1.01626
1.01076
1.01721
1.01496
1.01982
1.02254
1.01627
1.02444
1.01366
1.02714
1.01625
1.03468
1.00838
1.02952
0.988545
1.04265
0.993551
1.04941
1.01023
1.08779
1.01807
1.01206
1.03256
1.01129
1.01549
1.01473
1.01068
1.01456
1.00683
1.00113
1.00559
0.997581
1.00189
1.00094
1.00002
0.99956
1.00143
1.00484
1.00663
1.00947
1.00818
1.01127
1.00764
1.01021
1.00541
1.01088
1.00488
1.00833
1.00547
1.00974
1.00817
1.01113
1.00966
1.0132
1.01081
1.01778
1.0133
1.02096
1.0122
1.01758
1.01133
1.01444
1.0142
1.01421
1.01552
1.0152
1.02297
1.02231
1.02703
1.01903
1.02457
1.01844
1.03296
1.01137
1.02933
0.995785
1.0274
0.996734
1.05515
0.998718
1.08781
1.00739
1.02165
1.01713
1.01591
1.00976
0.995288
1.00824
1.00451
1.01052
0.995127
1.00608
0.994292
1.00517
1.00055
1.00396
1.00217
1.00804
1.00469
1.01204
1.00804
1.01521
1.01357
1.01707
1.01219
1.0108
1.00861
1.00767
1.00246
1.00952
1.00365
1.01017
1.00735
1.0139
1.00843
1.01459
1.01071
1.01834
1.01229
1.01817
1.012
1.01854
1.01004
1.01724
1.01021
1.01661
1.01442
1.022
1.02241
1.01552
1.0246
1.01623
1.02903
1.01995
1.0356
1.00952
1.03074
0.989094
1.04442
0.995041
1.04962
1.0033
1.08802
1.01593
1.01129
1.03077
1.01438
1.01399
1.01816
1.01081
1.01583
1.00649
0.999002
1.00989
0.998318
1.00682
0.999132
1.00123
1.00005
1.001
1.0011
1.00151
1.00608
1.00592
1.01149
1.00958
1.01167
1.00915
1.01045
1.0059
1.01158
1.00681
1.00669
1.00584
1.01011
1.0084
1.0111
1.01021
1.01521
1.01211
1.01701
1.01255
1.02045
1.01178
1.01844
1.01108
1.01297
1.01228
1.01363
1.01452
1.01555
1.02306
1.02012
1.02567
1.01837
1.02635
1.01926
1.03225
1.01408
1.02949
0.998811
1.03034
1.00012
1.05666
1.00053
1.08803
1.00536
1.01995
1.01585
1.01655
1.00612
1.00263
1.00953
1.00809
1.0129
0.997169
1.01005
0.995644
1.00791
0.998778
1.00857
1.00126
1.00616
1.00234
1.00881
1.00499
1.01274
1.00927
1.01534
1.01385
1.0157
1.01092
1.01089
1.00748
1.0089
1.00301
1.0087
1.00406
1.00965
1.00646
1.01281
1.00799
1.0141
1.0102
1.01716
1.01363
1.01993
1.01357
1.02059
1.00939
1.01813
1.01111
1.01742
1.01474
1.02067
1.02356
1.01751
1.02534
1.01846
1.02769
1.02017
1.03325
1.00919
1.03005
0.988043
1.04475
0.993884
1.04731
1.0125
1.08836
1.0152
1.01
1.03154
1.0177
1.01088
1.01975
1.00733
1.01582
1.00622
0.996748
1.01031
0.998612
1.00932
1.00028
1.00665
0.999512
1.00315
1.0019
1.00111
1.00313
1.0032
1.00749
1.00555
1.01064
1.00941
1.01211
1.00912
1.0098
1.00738
1.01021
1.00624
1.00658
1.00565
1.00896
1.00774
1.01181
1.00994
1.01768
1.01153
1.019
1.0136
1.02104
1.01127
1.01844
1.01188
1.01376
1.01075
1.01403
1.01487
1.01618
1.02284
1.02087
1.02371
1.01913
1.027
1.02265
1.03136
1.01636
1.02881
1.00021
1.02782
1.00572
1.05759
1.00124
1.08856
1.00545
1.01818
1.01498
1.01636
1.00291
1.00821
1.00929
1.01213
1.01585
0.999312
1.01254
0.998379
1.01174
0.998129
1.00998
0.998432
1.00777
1.0041
1.00614
1.00289
1.00852
1.00549
1.01262
1.0098
1.01253
1.01487
1.01385
1.01091
1.0115
1.00682
1.00953
1.00328
1.00953
1.00547
1.00942
1.00605
1.01295
1.0086
1.01331
1.01162
1.01524
1.01239
1.01826
1.01213
1.01935
1.0104
1.01797
1.01186
1.01789
1.01356
1.02157
1.02256
1.0194
1.0247
1.01883
1.02897
1.02021
1.03346
1.00904
1.02891
0.988793
1.03492
0.988304
1.04782
1.00573
1.08897
1.01457
1.00928
1.03194
1.01914
1.00715
1.02205
1.00475
1.01787
1.00706
0.995274
1.00912
0.997567
1.01282
1.00009
1.008
1.00077
1.00541
1.00282
1.0037
1.00189
1.00193
1.00304
1.00404
1.00767
1.00768
1.01204
1.00849
1.01262
1.01025
1.00925
1.00771
1.00895
1.00735
1.00563
1.00601
1.00825
1.00659
1.01202
1.00963
1.01609
1.01183
1.02154
1.01428
1.01957
1.01409
1.02
1.01106
1.01508
1.01127
1.01378
1.01325
1.01607
1.0198
1.02083
1.02468
1.01977
1.0265
1.02536
1.03189
1.01975
1.02675
1.00614
1.03101
1.01674
1.05915
1.00076
1.08915
1.00486
1.01475
1.01699
1.01486
1.00341
1.01375
1.00871
1.01611
1.01649
0.999017
1.01238
1.00065
1.01364
0.998729
1.01075
1.0032
1.00587
1.00183
1.0048
1.00261
1.00754
1.00262
1.00886
1.00641
1.01197
1.00995
1.01118
1.01278
1.01338
1.01065
1.01279
1.00732
1.00889
1.00446
1.01012
1.005
1.00821
1.00544
1.01294
1.00849
1.01365
1.01118
1.01459
1.01336
1.01896
1.01199
1.01945
1.01096
1.01553
1.01036
1.0179
1.013
1.02198
1.02075
1.01915
1.02544
1.01896
1.02789
1.02107
1.03456
1.01185
1.02667
0.991316
1.0357
0.986762
1.04805
1.01262
1.08938
1.01343
1.00719
1.03077
1.01626
1.00501
1.02349
1.00265
1.01926
1.00835
0.994561
1.00753
0.996835
1.01059
0.998699
1.01192
0.999929
1.00734
1.00361
1.00328
1.00526
1.0047
1.00465
1.00271
1.00362
1.00411
1.00796
1.00795
1.01202
1.01
1.01199
1.01047
1.01068
1.00778
1.00856
1.00606
1.00594
1.00626
1.00803
1.00635
1.01184
1.00895
1.01536
1.01166
1.02103
1.01562
1.01918
1.01402
1.01895
1.01176
1.01551
1.01215
1.01155
1.01345
1.01481
1.02012
1.02145
1.02409
1.02037
1.02691
1.02624
1.03226
1.02202
1.02653
1.00501
1.02537
1.01668
1.05791
1.00719
1.08926
1.00508
1.01345
1.01788
1.01304
1.0063
1.01724
1.00851
1.01717
1.01696
0.998672
1.01272
0.998661
1.01332
0.997913
1.01451
0.998706
1.00573
0.999307
1.00581
1.00406
1.00562
1.00359
1.00464
1.00413
1.00859
1.00824
1.01167
1.0109
1.01181
1.01095
1.01215
1.01019
1.01135
1.00852
1.008
1.00342
1.00958
1.00442
1.00923
1.00497
1.01195
1.00989
1.01388
1.01121
1.0174
1.01334
1.01949
1.01167
1.01873
1.00809
1.01684
1.0081
1.01782
1.01315
1.02428
1.021
1.01905
1.02547
1.01756
1.02739
1.02092
1.03467
1.01317
1.02594
0.992306
1.02883
0.987128
1.04721
1.01075
1.08921
1.01331
1.00677
1.02983
1.01453
1.00563
1.0249
1.00152
1.01891
1.01105
0.994384
1.00694
0.995781
1.00821
0.998012
1.00966
0.9987
1.01259
1.00557
1.00873
1.00608
1.00467
1.00591
1.00581
1.00538
1.00377
1.00538
1.00453
1.00931
1.00736
1.01076
1.01092
1.01228
1.00997
1.0112
1.00686
1.00815
1.00649
1.00424
1.00504
1.00811
1.00618
1.01259
1.00995
1.0156
1.01216
1.0185
1.01432
1.01942
1.01415
1.01953
1.01243
1.01625
1.01233
1.01218
1.01292
1.01541
1.02006
1.02144
1.02266
1.02272
1.02755
1.02749
1.03227
1.02337
1.02537
1.00754
1.03139
1.02318
1.0601
1.00072
1.08883
1.00586
1.01179
1.01814
1.01395
1.00978
1.01904
1.00814
1.01754
1.01834
0.997625
1.01209
0.998085
1.01429
0.997282
1.01494
0.998736
1.01546
0.999328
1.00682
1.00104
1.00555
1.00373
1.00608
1.00374
1.00417
1.00493
1.00773
1.00811
1.01145
1.01151
1.01145
1.01032
1.01186
1.01085
1.00989
1.00781
1.00796
1.00458
1.00991
1.00503
1.00811
1.005
1.01123
1.00985
1.0134
1.01281
1.01914
1.0152
1.01947
1.01167
1.01902
1.0109
1.01786
1.00745
1.01689
1.01249
1.0237
1.01968
1.01823
1.02472
1.01849
1.02797
1.02111
1.03299
1.01387
1.02617
0.995006
1.03671
0.990345
1.04793
1.01335
1.0886
1.01292
1.00564
1.02787
1.01441
1.00549
1.02304
1.00123
1.01801
1.01291
0.992696
1.0067
0.997264
1.00597
0.996507
1.00735
0.997176
1.00983
0.999521
1.01094
1.00622
1.00469
1.00565
1.00395
1.00536
1.00463
1.00535
1.00473
1.00513
1.0054
1.00859
1.00753
1.01037
1.00946
1.01078
1.00991
1.00925
1.00653
1.00771
1.00564
1.00471
1.00493
1.00753
1.00699
1.01127
1.0083
1.0162
1.01302
1.018
1.01521
1.01913
1.01568
1.01868
1.01113
1.01436
1.01179
1.01457
1.01207
1.01686
1.01988
1.02154
1.02414
1.02292
1.027
1.02804
1.02971
1.02087
1.02597
1.00846
1.02891
1.0204
1.05644
1.00774
1.08823
1.00852
1.01185
1.01642
1.01674
1.01247
1.01908
1.00869
1.01665
1.01836
0.994776
1.01479
0.998383
1.01432
0.999048
1.01468
1.00182
1.01519
0.999785
1.0154
1.0008
1.0058
1.00519
1.00555
1.00425
1.00468
1.00464
1.0056
1.0047
1.00793
1.00743
1.01142
1.01177
1.01128
1.01046
1.0124
1.01127
1.01171
1.00792
1.00725
1.00549
1.00906
1.00305
1.00768
1.00556
1.01057
1.00986
1.01348
1.01221
1.01764
1.01529
1.01852
1.01062
1.01738
1.00988
1.01752
1.00845
1.01745
1.01191
1.02221
1.01868
1.01796
1.02438
1.02163
1.02921
1.02504
1.03292
1.01954
1.02901
0.993809
1.03435
0.993981
1.04509
1.01691
1.08801
1.01088
1.00637
1.02612
1.01315
1.00704
1.02283
1.00247
1.01661
1.0137
0.992033
1.00701
0.998566
1.00494
0.997792
1.00654
0.998792
1.00847
0.998847
1.01131
0.999733
1.01022
1.00512
1.0059
1.0062
1.00425
1.00567
1.00533
1.00538
1.00496
1.00572
1.00638
1.00912
1.00714
1.01063
1.00969
1.01073
1.00968
1.00754
1.00622
1.00815
1.00508
1.00511
1.00524
1.00728
1.00644
1.01008
1.00856
1.01362
1.01353
1.01865
1.01548
1.01879
1.01421
1.01744
1.01238
1.01292
1.01115
1.0157
1.01227
1.01578
1.01938
1.02194
1.02397
1.02188
1.02821
1.02983
1.03066
1.02261
1.02623
1.00949
1.02841
1.02576
1.05972
1.00828
1.08767
1.00859
1.00949
1.01711
1.02028
1.01457
1.01745
1.00968
1.01416
1.01767
0.992707
1.01435
0.997777
1.01426
0.997672
1.01353
0.998072
1.0114
0.998271
1.01551
1.00003
1.01347
1.00131
1.00746
1.0048
1.00541
1.004
1.00607
1.00504
1.00522
1.00525
1.00768
1.00702
1.01083
1.01254
1.01172
1.01127
1.01186
1.01211
1.01279
1.00936
1.00796
1.0045
1.00776
1.00335
1.00717
1.00602
1.01068
1.01162
1.01387
1.01208
1.01775
1.01566
1.01876
1.01127
1.01756
1.00953
1.01637
1.00529
1.01797
1.01207
1.01876
1.01661
1.01847
1.02402
1.02158
1.0279
1.02615
1.03349
1.01897
1.02515
0.998924
1.03744
0.991281
1.04709
1.01176
1.08741
1.00689
1.00571
1.0255
1.01567
1.00942
1.02189
1.00372
1.01345
1.01394
0.990411
1.00545
0.998604
1.00704
0.99687
1.0055
0.998568
1.00885
1.00168
1.00936
0.99976
1.00923
0.99941
1.01037
1.00558
1.00616
1.00575
1.00403
1.00561
1.00426
1.00582
1.00567
1.0056
1.00607
1.00845
1.00682
1.0112
1.00816
1.01152
1.00852
1.00736
1.00667
1.00748
1.00529
1.00484
1.00455
1.00704
1.0059
1.01096
1.00958
1.01443
1.01469
1.01779
1.01542
1.01847
1.01471
1.01692
1.01172
1.01414
1.01306
1.01729
1.01205
1.01892
1.01759
1.02393
1.02333
1.02176
1.02771
1.03154
1.02856
1.0261
1.02668
1.01349
1.02796
1.03186
1.0564
1.00836
1.087
1.00779
1.00888
1.01536
1.02052
1.0131
1.01527
1.00967
1.01128
1.01746
0.990612
1.01263
0.998443
1.0132
1.00031
1.01336
0.998327
1.01279
0.998583
1.00678
0.999121
1.01394
1.00065
1.01231
1.00195
1.00682
1.00515
1.00633
1.00351
1.00546
1.0043
1.00588
1.00552
1.00637
1.00729
1.01122
1.01225
1.01182
1.01198
1.01186
1.01016
1.01155
1.00861
1.00714
1.0048
1.0098
1.00406
1.00564
1.00603
1.01036
1.01096
1.01305
1.01288
1.0175
1.01469
1.01894
1.01133
1.01643
1.00937
1.01742
1.00559
1.0179
1.01224
1.01821
1.01879
1.01799
1.02475
1.02302
1.02824
1.02771
1.03566
1.01873
1.02614
0.999697
1.03343
0.995027
1.04646
1.02095
1.08663
1.00649
1.00506
1.03014
1.01877
1.0126
1.02069
1.00553
1.01005
1.01537
0.989474
1.00349
0.997671
1.00624
0.999264
1.00561
0.997585
1.00608
1.00026
1.00665
1.00712
1.01112
1.00122
1.01043
1.00155
1.01034
1.00658
1.00515
1.00544
1.00349
1.00598
1.00589
1.00483
1.00521
1.0062
1.00625
1.00789
1.00669
1.01162
1.00796
1.01054
1.00888
1.00718
1.00655
1.00784
1.00561
1.00277
1.00437
1.00679
1.00657
1.01026
1.00998
1.01235
1.01375
1.01713
1.01571
1.01818
1.01391
1.01657
1.01016
1.01286
1.01164
1.0164
1.01328
1.01752
1.01648
1.02349
1.02327
1.02322
1.02746
1.03206
1.02633
1.02936
1.02502
1.01469
1.02895
1.02742
1.05915
1.01532
1.08605
1.00585
1.00639
1.01406
1.0217
1.01289
1.01292
1.01095
1.00853
1.01665
0.988213
1.01002
0.998289
1.00964
1.00041
1.01222
0.999886
1.01252
0.997516
1.00558
1.00074
1.00777
0.998553
1.0132
0.999699
1.01045
1.00194
1.00604
1.0048
1.00605
1.00385
1.00549
1.00353
1.00713
1.00527
1.00659
1.00719
1.0111
1.01251
1.01188
1.01223
1.01116
1.00907
1.01254
1.00894
1.00644
1.00308
1.00946
1.00417
1.00616
1.00704
1.01006
1.01143
1.0133
1.01248
1.01865
1.0155
1.01928
1.01145
1.01597
1.0077
1.0196
1.00669
1.01758
1.01242
1.01745
1.01838
1.02099
1.02454
1.02336
1.02769
1.02741
1.0348
1.01982
1.02608
1.00318
1.03013
1.00753
1.04593
1.01623
1.08551
1.00465
1.00649
1.03231
1.02176
1.01285
1.01851
1.00782
1.00648
1.01609
0.988907
1.00194
0.997856
1.00296
1.00004
1.00488
1.00006
1.00522
0.999791
1.00621
1.00582
1.00639
1.00631
1.01012
1.00081
1.01086
1.0021
1.0098
1.00572
1.00496
1.00677
1.00487
1.00569
1.00614
1.00412
1.00495
1.00603
1.00655
1.00781
1.00627
1.01126
1.00858
1.01143
1.00899
1.00711
1.00573
1.00617
1.00599
1.0032
1.00604
1.00661
1.00647
1.01018
1.01004
1.01312
1.01438
1.01799
1.01661
1.01939
1.01434
1.0155
1.0095
1.01246
1.01006
1.01593
1.01255
1.01593
1.01562
1.02332
1.0231
1.02559
1.02642
1.03449
1.02928
1.03019
1.02358
1.01896
1.03136
1.02915
1.0555
1.01151
1.08474
1.00429
1.00575
1.01444
1.02144
1.01297
1.01166
1.01136
1.00514
1.01625
0.986142
1.00754
0.997403
1.00616
1.00206
1.00869
1.00135
1.01072
0.999592
1.01072
0.999587
1.00643
1.0004
1.0066
1.00129
1.01386
1.0004
1.00732
1.00274
1.0072
1.00432
1.00663
1.00421
1.00629
1.00382
1.00779
1.00511
1.00695
1.00759
1.0117
1.01187
1.01194
1.01153
1.01174
1.00852
1.01203
1.00845
1.0069
1.00187
1.00759
1.00379
1.00603
1.00647
1.00995
1.011
1.01354
1.01183
1.01715
1.014
1.01903
1.01238
1.01681
1.00792
1.0208
1.00664
1.01885
1.01195
1.01658
1.01741
1.02152
1.02387
1.02564
1.02862
1.03056
1.03253
1.02214
1.02431
1.0072
1.03295
1.00276
1.04343
1.02071
1.084
1.00595
1.00286
1.03699
1.02364
1.01313
1.01779
1.00973
1.00381
1.01661
0.988539
1.00118
0.998109
1.00178
1.00145
1.00228
1.00146
1.00313
1.00147
1.00523
1.00063
1.00622
1.00651
1.00694
1.00633
1.00646
1.00204
1.01016
1.00728
1.00949
1.00675
1.00532
1.0062
1.00484
1.00583
1.00662
1.00506
1.00526
1.00499
1.00606
1.00873
1.0064
1.01164
1.00904
1.01141
1.00834
1.00777
1.006
1.00612
1.00588
1.00449
1.00747
1.0065
1.00619
1.00986
1.01088
1.01378
1.01473
1.02015
1.01599
1.01908
1.01346
1.01769
1.01026
1.0114
1.00928
1.01606
1.01287
1.01715
1.0161
1.02398
1.02286
1.02775
1.02845
1.03309
1.02962
1.02994
1.02328
1.024
1.03142
1.03289
1.05442
1.01806
1.08305
1.00238
1.01052
1.0154
1.02218
1.01293
1.01079
1.01343
1.00254
1.01677
0.985919
1.00608
0.998031
1.00313
1.00004
1.00486
1.00257
1.00799
1.0023
1.0058
1.00036
1.00536
0.99994
1.00621
1.00069
1.00741
1.00127
1.00766
1.00164
1.00634
1.00333
1.00659
1.004
1.00784
1.00465
1.0065
1.00485
1.00728
1.00568
1.00857
1.00675
1.00877
1.01157
1.01146
1.01062
1.01232
1.00804
1.00882
1.00864
1.00504
1.00233
1.00692
1.00307
1.00494
1.00707
1.0098
1.0084
1.01377
1.01313
1.01545
1.01434
1.01861
1.01226
1.01654
1.00602
1.02085
1.00775
1.01632
1.0111
1.01722
1.0175
1.02338
1.02499
1.02566
1.02812
1.03286
1.03362
1.0238
1.02541
1.00943
1.02946
1.01101
1.04484
1.02345
1.08223
1.00454
1.00233
1.03815
1.02425
1.01291
1.01584
1.01085
1.00046
1.01618
0.989563
1.00008
1.00009
1.00044
1.00099
1.00237
1.00315
1.00191
1.0016
1.0042
1.00588
1.00528
1.00544
1.00651
1.00593
1.00696
1.00685
1.00878
1.00811
1.01083
1.00762
1.00801
1.00687
1.00603
1.00658
1.00463
1.0062
1.00577
1.0051
1.00529
1.00385
1.0061
1.00872
1.00647
1.01179
1.00923
1.01089
1.00805
1.0098
1.0068
1.00645
1.00423
1.00511
1.00687
1.00714
1.00617
1.00918
1.01147
1.01331
1.01475
1.01839
1.01519
1.01862
1.01406
1.01732
1.01081
1.01116
1.01027
1.01594
1.01189
1.01609
1.01631
1.02309