/*--------------------------------*- C++ -*----------------------------------*\
| =========                 |                                                 |
| \\      /  F ield         | OpenFOAM: The Open Source CFD Toolbox           |
|  \\    /   O peration     | Version:  2206                                  |
|   \\  /    A nd           | Website:  www.openfoam.com                      |
|    \\/     M anipulation  |                                                 |
\*---------------------------------------------------------------------------*/
FoamFile
{
    version     2.0;
    format      ascii;
    arch        "LSB;label=32;scalar=64";
    class       volScalarField;
    location    "170";
    object      TMean;
}
// * * * * * * * * * * * * * * * * * * * * * * * * * * * * * * * * * * * * * //

dimensions      [0 0 0 1 0 0 0];

internalField   nonuniform List<scalar> 
93840
(
1.02486
1.01777
1.05551
1.05379
0.987852
1.0848
0.905092
1.04209
1.01077
1.06808
0.993407
0.950641
1.02353
1.00508
1.05219
0.996471
1.00841
0.962279
1.03731
0.991307
1.05389
1.02521
0.980131
1.00857
0.952545
1.04219
1.00343
1.04371
1.01027
1.02968
0.974715
1.01725
0.973049
1.02601
0.994749
1.02622
1.02559
0.996849
1.02905
0.998466
1.032
0.979499
1.01475
1.00043
1.02419
1.0069
1.02458
0.99052
1.03263
0.985012
1.01537
0.990105
1.02159
0.994866
1.0136
1.0236
1.00256
1.02321
1.00915
1.02675
0.99248
1.02689
0.996708
1.00867
0.997555
1.01983
1.00347
1.02394
0.993018
1.01732
0.985515
1.02117
1.00414
1.01137
0.995484
1.01506
0.996817
1.01966
1.02735
1.00229
1.02591
1.00967
1.01795
1.00277
1.02567
1.0047
1.01864
1.00233
1.00413
0.996175
1.01593
1.00306
1.02727
0.996774
1.01689
0.99731
1.02273
1.00303
1.0101
1.0102
1.00915
0.995575
1.0154
0.996296
1.01791
1.02437
1.00087
1.02631
1.01159
1.01973
1.01121
1.01962
1.00654
1.01956
1.00672
1.01562
1.00311
1.00409
0.995349
1.01414
1.0014
1.02376
0.999128
1.02137
1.00721
1.02442
1.01095
1.0171
1.00895
1.00718
1.00866
1.0094
0.995471
1.01419
0.996244
1.01617
1.02253
0.998545
1.02291
1.01386
1.02267
1.01815
1.02249
1.01823
1.01944
1.00725
1.01644
1.00735
1.01487
1.00463
1.00461
0.994845
1.01197
1.00041
1.0237
0.998822
1.01827
1.00723
1.02208
1.01527
1.02085
1.01327
1.01527
1.0099
1.00573
1.00751
1.00976
0.995405
1.0133
0.996283
1.01413
1.02058
0.999007
1.01877
1.0132
1.01819
1.01578
1.01988
1.02013
1.02156
1.01896
1.01937
1.0085
1.0149
1.00811
1.01402
1.0058
1.0047
0.994567
1.0102
1.00091
1.02074
0.998839
1.01462
1.00651
1.01772
1.01366
1.01685
1.01518
1.01947
1.01433
1.01419
1.01078
1.00561
1.00647
1.00983
0.996258
1.01207
0.996439
1.01267
1.01949
0.999531
1.01512
1.0128
1.01477
1.01551
1.01753
1.01657
1.01845
1.01992
1.02112
1.01953
1.01924
1.00962
1.01312
1.00863
1.01239
1.00731
1.00476
0.994465
1.00846
1.00006
1.01927
1.00013
1.01061
1.0052
1.01353
1.01163
1.01402
1.01346
1.0152
1.01513
1.01828
1.01532
1.0134
1.01124
1.00554
1.00646
1.00985
0.997017
1.01087
0.996703
1.0119
1.01972
0.998794
1.01157
1.01207
1.01141
1.01406
1.01374
1.01545
1.01675
1.01672
1.01784
1.01973
1.02069
1.01974
1.0192
1.00946
1.0118
1.00913
1.01127
1.00855
1.0046
0.994577
1.00618
0.999255
1.01806
0.999753
1.00616
1.00431
1.0094
1.00976
1.01108
1.01125
1.01273
1.01322
1.01407
1.01494
1.01727
1.01609
1.01276
1.01255
1.00528
1.00674
1.00994
0.997887
1.00994
0.997004
1.01122
1.01872
0.998494
1.00697
1.00895
1.00748
1.01318
1.01117
1.01411
1.01274
1.0152
1.01593
1.01672
1.01704
1.01973
1.02038
1.01933
1.0193
1.01048
1.01061
1.01004
1.01009
1.00925
1.0042
0.993895
1.00209
0.999667
1.01701
0.99876
1.00348
1.00351
1.00567
1.00826
1.008
1.00864
1.00998
1.01091
1.01218
1.01304
1.01347
1.01505
1.01636
1.0165
1.01205
1.01264
1.00506
1.00693
1.00977
0.998348
1.00885
0.995439
0.998966
1.01983
1.00092
1.00781
1.01039
1.00673
1.01403
1.00966
1.01345
1.01078
1.0139
1.01207
1.01473
1.01531
1.01686
1.01657
1.01952
1.02013
1.01997
1.0184
1.01211
1.00972
1.01015
1.00912
1.00986
1.0036
0.997302
1.00293
1.00206
1.01804
1.00257
1.00386
1.0057
1.00619
1.01102
1.00807
1.00817
1.00739
1.00818
1.00932
1.01086
1.01174
1.01289
1.01276
1.01507
1.01578
1.01705
1.01224
1.01247
1.0044
1.00689
1.00969
0.99882
1.00622
0.999959
1.00238
1.02122
1.00521
1.00883
1.01234
1.00805
1.01704
1.01089
1.01475
1.0105
1.01335
1.01063
1.01349
1.01157
1.01413
1.01441
1.01699
1.01626
1.01926
1.01959
1.02016
1.01779
1.01281
1.00929
1.01
1.00848
1.01044
1.00237
0.9961
1.00419
1.00308
1.01957
1.00688
1.00517
1.00935
1.00712
1.0117
1.0076
1.01091
1.00854
1.00827
1.00723
1.00799
1.00877
1.01077
1.01104
1.01289
1.01214
1.01525
1.01521
1.01749
1.01193
1.0125
1.00452
1.00658
1.00952
0.99979
1.0066
0.998589
1.00232
1.02118
1.00802
1.01034
1.01513
1.00914
1.01844
1.01118
1.01678
1.01238
1.01464
1.0109
1.01295
1.01023
1.01289
1.01092
1.014
1.01413
1.0168
1.01587
1.01799
1.01896
1.0202
1.01745
1.01269
1.00909
1.01031
1.00771
1.01073
1.00279
0.994863
1.00354
1.00366
1.02111
1.01135
1.00766
1.0125
1.00864
1.01373
1.0103
1.01258
1.00846
1.01075
1.00867
1.00833
1.00706
1.00793
1.00846
1.01046
1.01072
1.01304
1.01156
1.01604
1.01461
1.01794
1.012
1.01247
1.00441
1.00601
1.00904
1.00027
1.00656
0.998075
1.00161
1.01987
1.01003
1.01359
1.01918
1.01136
1.02117
1.01339
1.01901
1.01281
1.01614
1.01275
1.01393
1.01085
1.01261
1.00965
1.01247
1.01079
1.0138
1.01358
1.01665
1.01561
1.01861
1.01857
1.01966
1.01735
1.01276
1.00864
1.01043
1.00687
1.01054
1.00319
0.994896
1.00235
1.0044
1.02037
1.01203
1.00811
1.01413
1.00958
1.01535
1.01172
1.01377
1.01141
1.0126
1.00892
1.01088
1.00881
1.00848
1.00701
1.00786
1.00812
1.01023
1.01061
1.01306
1.0113
1.0159
1.01425
1.01802
1.01201
1.01241
1.00441
1.00579
1.00889
1.00039
1.00546
0.998179
1.00049
1.02085
1.01185
1.01476
1.02002
1.01207
1.02189
1.01434
1.01932
1.01478
1.01821
1.01341
1.01565
1.01293
1.01391
1.01005
1.01218
1.0095
1.01208
1.01039
1.01363
1.01316
1.01653
1.015
1.01836
1.01829
1.01948
1.01708
1.01297
1.0082
1.01019
1.00629
1.00984
1.00294
0.99517
1.00115
1.00538
1.01991
1.01262
1.00897
1.01572
1.01016
1.01666
1.01291
1.01533
1.01298
1.01359
1.01183
1.01247
1.00895
1.01116
1.0089
1.00873
1.00668
1.00777
1.00791
1.01008
1.01041
1.013
1.01126
1.01589
1.01389
1.01796
1.01217
1.01248
1.00426
1.00549
1.00864
1.00174
1.00481
0.998496
0.999363
1.02078
1.01302
1.01455
1.01978
1.01294
1.02209
1.01496
1.01925
1.01653
1.01824
1.0153
1.01772
1.01315
1.01534
1.01303
1.01343
1.01064
1.01174
1.00929
1.01172
1.00971
1.01271
1.01264
1.01568
1.01473
1.01798
1.01789
1.01944
1.01696
1.01317
1.00777
1.00992
1.00602
1.0099
1.00258
0.995497
1.00002
1.00556
1.01846
1.01309
1.01055
1.01718
1.01008
1.01645
1.01157
1.01494
1.01374
1.01509
1.01337
1.01363
1.01238
1.01259
1.00902
1.01119
1.009
1.00899
1.00644
1.0078
1.008
1.01045
1.01004
1.01359
1.0111
1.01598
1.01367
1.01817
1.01199
1.0125
1.00435
1.00526
1.00835
1.00202
1.00417
0.998805
0.998288
1.01873
1.01059
1.01251
1.01944
1.01291
1.01981
1.01212
1.01477
1.0148
1.01736
1.017
1.01784
1.01551
1.01751
1.01321
1.01503
1.01311
1.01326
1.01043
1.01077
1.0093
1.01147
1.00968
1.01251
1.01256
1.01566
1.01415
1.01777
1.01716
1.01939
1.01665
1.01321
1.00746
1.00927
1.00576
1.01002
1.00239
0.995707
0.998915
1.00404
1.01446
1.01113
1.00849
1.01467
1.00648
1.01235
1.00755
1.01241
1.01194
1.01428
1.01406
1.01493
1.01362
1.0136
1.01252
1.01277
1.00912
1.01109
1.00911
1.0093
1.00642
1.00762
1.00767
1.01049
1.00996
1.01349
1.01112
1.01594
1.01391
1.01816
1.01223
1.01244
1.0044
1.00542
1.00797
1.00216
1.00369
0.999037
0.997189
1.01611
1.0076
1.00974
1.01668
1.00876
1.01385
1.00708
1.00982
1.01052
1.01246
1.01454
1.0162
1.01687
1.0174
1.01475
1.01726
1.01339
1.0148
1.0127
1.01289
1.01041
1.01052
1.00907
1.01128
1.00956
1.01241
1.01219
1.01559
1.01394
1.01756
1.01677
1.01926
1.01639
1.01325
1.00712
1.00904
1.00552
1.00996
1.00237
0.996028
0.99772
1.00303
1.01037
1.00838
1.00459
1.01062
1.0022
1.0081
1.00451
1.0083
1.00796
1.01121
1.01219
1.01426
1.01429
1.01491
1.01422
1.01373
1.01258
1.01282
1.00942
1.01107
1.00913
1.00964
1.00651
1.0075
1.00743
1.01029
1.00989
1.01334
1.01099
1.01578
1.01372
1.01806
1.01226
1.01243
1.00455
1.00526
1.00761
1.00229
1.00338
0.999231
0.996108
1.01464
1.00585
1.00714
1.0127
1.004
1.00947
1.0048
1.00854
1.00796
1.00821
1.01014
1.01125
1.01381
1.01469
1.01686
1.01729
1.01511
1.01703
1.01343
1.01462
1.01271
1.01289
1.01037
1.01024
1.0087
1.01092
1.0094
1.01223
1.01199
1.01543
1.01369
1.01732
1.01639
1.01917
1.01616
1.01333
1.00687
1.00891
1.00518
1.00994
1.00241
0.996386
0.996945
1.00265
1.00825
1.00608
1.00118
1.00782
1.00038
1.00733
1.00554
1.00708
1.00604
1.00749
1.00803
1.01072
1.01221
1.01408
1.01383
1.01494
1.01437
1.01384
1.01258
1.01295
1.0094
1.01105
1.00907
1.0096
1.00669
1.00753
1.0072
1.01007
1.00971
1.01319
1.01083
1.01567
1.01345
1.01794
1.01228
1.0125
1.00473
1.00514
1.00717
1.00232
1.00305
0.99951
0.995502
1.0142
1.00491
1.00417
1.00876
1.00141
1.0088
1.00541
1.00903
1.00713
1.00724
1.00811
1.00767
1.0098
1.01056
1.0135
1.01508
1.01685
1.01703
1.01499
1.01672
1.01335
1.01388
1.0126
1.01264
1.01031
1.01011
1.00843
1.01011
1.00922
1.01172
1.01173
1.01513
1.01341
1.01715
1.01606
1.01904
1.01597
1.01334
1.00654
1.00863
1.00495
1.00986
1.00241
0.996378
0.996245
1.00366
1.00717
1.00447
0.99925
1.00788
1.00195
1.0088
1.00734
1.00744
1.00746
1.0071
1.00659
1.00714
1.00804
1.01027
1.01198
1.01359
1.01413
1.01503
1.01439
1.01405
1.01267
1.01329
1.00957
1.011
1.009
1.00939
1.00677
1.00796
1.00705
1.01021
1.00953
1.01323
1.01062
1.01558
1.0133
1.01776
1.01229
1.01257
1.00473
1.00506
1.00686
1.00238
1.00284
0.999436
0.994727
1.01452
1.00615
1.00379
1.00853
1.00287
1.01068
1.00704
1.01026
1.00889
1.00843
1.00776
1.00689
1.00816
1.00742
1.00971
1.01028
1.01235
1.01465
1.01648
1.01667
1.0151
1.01654
1.01348
1.01397
1.01242
1.01259
1.01038
1.01014
1.00842
1.00944
1.00898
1.01149
1.01139
1.01497
1.01298
1.01686
1.01577
1.01882
1.01587
1.01328
1.00633
1.00864
1.00454
1.00976
1.00237
0.996376
0.995359
1.00521
1.00811
1.0052
1.00058
1.01013
1.00458
1.01043
1.00893
1.00924
1.00974
1.00811
1.00808
1.0073
1.00703
1.00689
1.00796
1.00999
1.01254
1.01367
1.01439
1.01509
1.01441
1.01408
1.01266
1.01328
1.00965
1.01098
1.00856
1.00938
1.00673
1.0081
1.00704
1.01011
1.00939
1.01315
1.01066
1.01546
1.01306
1.01777
1.01219
1.0127
1.00469
1.00506
1.00658
1.00247
1.00259
0.999392
0.99377
1.01499
1.00796
1.00568
1.01054
1.00514
1.01264
1.00905
1.0116
1.01154
1.01006
1.00949
1.00817
1.00808
1.00642
1.00812
1.00726
1.00958
1.01021
1.01271
1.01421
1.01605
1.01625
1.01503
1.01648
1.01321
1.014
1.01231
1.01246
1.0106
1.01008
1.00831
1.0095
1.0088
1.01136
1.01121
1.01483
1.01277
1.01662
1.01553
1.01864
1.0157
1.01336
1.0059
1.00822
1.00409
1.00954
1.00233
0.996421
0.994398
1.00609
1.00928
1.00707
1.00283
1.01213
1.00695
1.01233
1.01057
1.0115
1.01154
1.00987
1.01056
1.00833
1.00837
1.00744
1.00701
1.00694
1.00791
1.00939
1.01234
1.01364
1.01459
1.01523
1.01444
1.01416
1.0128
1.01319
1.00974
1.01095
1.00853
1.00928
1.00651
1.00803
1.00687
1.00996
1.0092
1.013
1.01049
1.01537
1.01282
1.01767
1.01216
1.01278
1.00477
1.00517
1.00616
1.00258
1.00231
0.999372
0.992835
1.01525
1.00929
1.00759
1.01223
1.007
1.01436
1.01136
1.01281
1.01333
1.01077
1.01207
1.00989
1.00995
1.00842
1.00859
1.00676
1.00825
1.00721
1.00947
1.0102
1.01249
1.01398
1.01597
1.01633
1.01495
1.01641
1.01342
1.01399
1.01227
1.01238
1.01058
1.01005
1.0084
1.0093
1.0086
1.0112
1.01097
1.01462
1.01252
1.0163
1.01528
1.01851
1.01548
1.01348
1.0057
1.00814
1.00378
1.00947
1.00237
0.996496
0.993581
1.00709
1.01004
1.0086
1.00526
1.01386
1.00856
1.01364
1.01096
1.01131
1.01186
1.0114
1.01209
1.01015
1.01061
1.00836
1.00835
1.00708
1.00719
1.0068
1.00792
1.00912
1.01215
1.01354
1.0145
1.01524
1.01443
1.01415
1.01269
1.0132
1.00962
1.01096
1.00852
1.00926
1.00642
1.00796
1.0067
1.00983
1.00902
1.01292
1.01028
1.01523
1.01263
1.01753
1.01216
1.01285
1.00467
1.00501
1.00586
1.00258
1.00206
0.999386
0.992035
1.01538
1.00992
1.00926
1.01298
1.00807
1.01535
1.01296
1.01256
1.01299
1.01076
1.01363
1.01069
1.01217
1.00991
1.00998
1.00845
1.00887
1.0072
1.00826
1.00681
1.00941
1.01019
1.01222
1.01373
1.01597
1.01622
1.01501
1.01617
1.01351
1.0139
1.01225
1.01224
1.01062
1.00996
1.00826
1.00918
1.00831
1.01092
1.01081
1.0144
1.01232
1.01611
1.01485
1.01836
1.01524
1.01344
1.00553
1.00808
1.00329
1.0094
1.00231
0.996601
0.992802
1.00771
1.01057
1.01019
1.00704
1.01436
1.0092
1.014
1.01031
1.01013
1.01152
1.0109
1.01203
1.01131
1.01235
1.01035
1.01091
1.00863
1.00864
1.00712
1.00736
1.00696
1.00788
1.00891
1.01207
1.01345
1.01443
1.01522
1.01436
1.01438
1.01254
1.01326
1.00958
1.0109
1.00844
1.00925
1.00637
1.00787
1.00665
1.00976
1.00882
1.01279
1.01011
1.01511
1.01254
1.01738
1.01211
1.01308
1.0046
1.0049
1.00551
1.00263
1.00179
0.999406
0.99117
1.01527
1.00963
1.00915
1.01362
1.00874
1.01517
1.01289
1.0109
1.0115
1.00969
1.0129
1.01016
1.01311
1.01047
1.0123
1.01016
1.01031
1.00847
1.00826
1.00715
1.0083
1.00683
1.00868
1.01014
1.01192
1.01332
1.01586
1.01613
1.01512
1.01598
1.01351
1.01384
1.01216
1.01212
1.01059
1.00979
1.00777
1.00908
1.0082
1.01075
1.01057
1.01423
1.01201
1.01584
1.01466
1.01823
1.01493
1.01339
1.00531
1.00797
1.00288
1.00938
1.00217
0.996737
0.991987
1.00799
1.0108
1.01061
1.00647
1.01318
1.00857
1.0131
1.00894
1.00862
1.01049
1.00926
1.01113
1.01081
1.01218
1.01138
1.01249
1.01031
1.01109
1.00883
1.00885
1.00721
1.00726
1.00722
1.0082
1.0087
1.01204
1.01346
1.01433
1.01521
1.01435
1.01448
1.01244
1.01323
1.00962
1.01082
1.00839
1.00928
1.00654
1.00775
1.00647
1.00964
1.00863
1.0127
1.01001
1.01497
1.01232
1.01724
1.0122
1.0131
1.00454
1.00477
1.0051
1.00266
1.00155
0.9994
0.990422
1.01445
1.00948
1.01063
1.01424
1.00904
1.01425
1.01168
1.00892
1.01037
1.0083
1.01105
1.00861
1.01247
1.00999
1.01303
1.01039
1.01206
1.0104
1.01051
1.00873
1.0086
1.00735
1.00827
1.00685
1.00828
1.0101
1.01181
1.01322
1.01576
1.01597
1.01501
1.01562
1.01345
1.01378
1.01206
1.01202
1.01055
1.00973
1.0074
1.00889
1.00807
1.01053
1.01032
1.01409
1.01188
1.01562
1.01445
1.018
1.0148
1.01343
1.00512
1.00785
1.00256
1.00868
1.00202
0.996886
0.991266
1.00726
1.01031
1.0098
1.00648
1.01277
1.00774
1.01148
1.00782
1.00804
1.01008
1.00786
1.01051
1.00922
1.01114
1.01073
1.01221
1.01151
1.01249
1.01022
1.01089
1.00892
1.00876
1.00743
1.00736
1.0072
1.00864
1.00865
1.01184
1.01343
1.0143
1.0151
1.0144
1.01468
1.01254
1.01317
1.00966
1.0108
1.00831
1.00926
1.00675
1.00775
1.00632
1.00949
1.00848
1.01257
1.00982
1.01482
1.01212
1.01716
1.01214
1.01311
1.00442
1.0047
1.00456
1.00333
1.00121
0.99938
0.989739
1.0132
1.00797
1.00977
1.01341
1.00781
1.01223
1.0098
1.00782
1.01031
1.00744
1.01015
1.00778
1.01103
1.00847
1.01204
1.01005
1.01283
1.01058
1.012
1.01071
1.01069
1.00893
1.00872
1.00731
1.00804
1.00701
1.00815
1.00996
1.01179
1.01307
1.01545
1.01605
1.01501
1.01565
1.01346
1.01371
1.01197
1.01189
1.01034
1.00962
1.00733
1.00866
1.00796
1.01042
1.01012
1.01389
1.01168
1.0154
1.01423
1.01746
1.01461
1.0135
1.00495
1.00778
1.00235
1.00863
1.00178
0.99697
0.990643
1.00663
1.00884
1.00916
1.0059
1.0111
1.00618
1.00968
1.00755
1.00826
1.00986
1.00734
1.01001
1.00783
1.00975
1.00931
1.01114
1.01067
1.01226
1.01145
1.01266
1.01027
1.01098
1.00896
1.00888
1.00752
1.00759
1.00719
1.00863
1.00855
1.01183
1.01328
1.01437
1.01508
1.01434
1.0146
1.01252
1.0131
1.00971
1.01077
1.00845
1.00922
1.0067
1.00763
1.00616
1.0093
1.0082
1.01245
1.00963
1.01465
1.01191
1.01732
1.01197
1.0131
1.0042
1.00475
1.00402
1.00332
1.00091
0.99935
0.989115
1.01268
1.00783
1.00916
1.01201
1.00628
1.01053
1.00866
1.00787
1.01099
1.00717
1.01033
1.00723
1.00997
1.0073
1.01078
1.00838
1.0116
1.00993
1.01231
1.01065
1.01208
1.01077
1.01077
1.00913
1.00879
1.00751
1.00808
1.007
1.00807
1.00986
1.01192
1.01303
1.01534
1.01594
1.01501
1.01563
1.01342
1.01364
1.01185
1.01179
1.01021
1.0095
1.00723
1.00851
1.00768
1.01028
1.00998
1.0137
1.01148
1.01519
1.01396
1.01735
1.01451
1.01357
1.00489
1.00752
1.00207
1.00854
1.00154
0.997051
0.98997
1.00647
1.00816
1.00889
1.00489
1.00978
1.00525
1.0086
1.00784
1.00862
1.00982
1.00764
1.00986
1.00748
1.00993
1.00839
1.00992
1.00925
1.01114
1.01076
1.01244
1.01147
1.01272
1.01039
1.01099
1.00891
1.00896
1.00747
1.00757
1.00717
1.00853
1.00844
1.01132
1.01315
1.01439
1.01509
1.01437
1.01458
1.01255
1.01311
1.00973
1.01074
1.00839
1.00915
1.00665
1.00756
1.00616
1.00911
1.00805
1.01231
1.00946
1.01449
1.01174
1.01722
1.01188
1.0131
1.00388
1.0047
1.00343
1.00327
1.00058
0.99924
0.988528
1.01114
1.00685
1.00778
1.01071
1.0054
1.00939
1.00813
1.00813
1.01138
1.00734
1.0107
1.00744
1.01036
1.00726
1.00933
1.00729
1.00994
1.00835
1.01156
1.00972
1.01221
1.01072
1.01214
1.01083
1.01084
1.00932
1.00887
1.00767
1.00814
1.00708
1.00814
1.00981
1.01183
1.01289
1.01514
1.01582
1.01499
1.01556
1.01336
1.01351
1.01177
1.01158
1.0102
1.00941
1.00711
1.0084
1.00746
1.0101
1.00979
1.01344
1.0113
1.01497
1.01368
1.01719
1.01429
1.01364
1.0048
1.00732
1.0018
1.00845
1.00125
0.997069
0.989253
1.00666
1.00699
1.00803
1.00362
1.0083
1.00432
1.00786
1.00811
1.00875
1.01003
1.00856
1.01052
1.00797
1.00976
1.00759
1.01004
1.00843
1.00999
1.00919
1.01096
1.01092
1.01238
1.0115
1.01247
1.0106
1.01097
1.00885
1.009
1.00751
1.00761
1.00714
1.00849
1.00833
1.01126
1.01302
1.01436
1.01504
1.01435
1.01449
1.01258
1.01309
1.0097
1.01068
1.00837
1.00906
1.00661
1.00746
1.00605
1.00892
1.00786
1.01215
1.00925
1.01437
1.01155
1.01705
1.01178
1.01308
1.00355
1.00465
1.00295
1.00323
1.00023
0.999158
0.987905
1.01096
1.00692
1.00698
1.00968
1.00466
1.00858
1.00816
1.00847
1.0116
1.00794
1.01186
1.00784
1.01042
1.00735
1.01006
1.00748
1.00936
1.00746
1.01026
1.00822
1.01162
1.00989
1.01226
1.0107
1.01222
1.01085
1.01095
1.00956
1.00892
1.00772
1.00818
1.00708
1.00839
1.00973
1.01179
1.01275
1.01511
1.01574
1.01495
1.01557
1.01333
1.01342
1.01172
1.01156
1.01001
1.00935
1.007
1.00825
1.00737
1.00989
1.00966
1.01329
1.01116
1.01475
1.01339
1.01704
1.01412
1.01367
1.00477
1.00695
1.00148
1.00833
1.0009
0.99708
0.988585
1.00695
1.00659
1.00723
1.00227
1.00726
1.00407
1.00803
1.00861
1.00905
1.01065
1.00904
1.0105
1.00857
1.01029
1.00829
1.00954
1.00769
1.00958
1.00832
1.01009
1.00936
1.01086
1.01081
1.01229
1.01151
1.01243
1.01072
1.01084
1.00884
1.00902
1.00761
1.00765
1.00713
1.00816
1.00825
1.01115
1.01298
1.0143
1.01495
1.01429
1.01443
1.01261
1.01302
1.00971
1.0106
1.00849
1.00898
1.00659
1.00723
1.00593
1.00875
1.0077
1.01201
1.00909
1.0142
1.01132
1.01685
1.01164
1.01306
1.00338
1.00476
1.00244
1.0032
0.999831
0.999022
0.987388
1.01085
1.00667
1.00609
1.00887
1.00437
1.00837
1.00877
1.00864
1.01184
1.0089
1.01247
1.00825
1.01136
1.00827
1.01053
1.00767
1.01017
1.00763
1.00933
1.00769
1.00975
1.0082
1.01115
1.00993
1.01226
1.01087
1.01223
1.01097
1.01092
1.00961
1.00897
1.00772
1.00814
1.00715
1.00835
1.00945
1.0117
1.01259
1.01498
1.01574
1.01491
1.01549
1.01327
1.01336
1.01162
1.01144
1.00995
1.00924
1.00689
1.0082
1.00727
1.0097
1.0095
1.0131
1.01094
1.01455
1.01314
1.01691
1.01397
1.01366
1.00466
1.00678
1.00113
1.00812
1.00051
0.997011
0.988033
1.00746
1.00657
1.00652
1.00159
1.00702
1.00436
1.00848
1.00866
1.0091
1.011
1.00929
1.01118
1.00932
1.0105
1.00882
1.01027
1.00839
1.00916
1.00794
1.00963
1.00811
1.01004
1.0093
1.01109
1.01078
1.01224
1.01154
1.01247
1.01079
1.01093
1.00906
1.00912
1.00768
1.00775
1.00707
1.00816
1.00835
1.01104
1.01288
1.01425
1.01485
1.01429
1.01444
1.01258
1.013
1.00977
1.01052
1.00845
1.00881
1.00656
1.0071
1.00579
1.00855
1.00755
1.01186
1.00893
1.01406
1.0111
1.01662
1.01148
1.01309
1.00305
1.00472
1.0019
1.00314
0.999426
0.998791
0.98696
1.01066
1.00697
1.00585
1.00874
1.00462
1.00852
1.00951
1.00868
1.01244
1.0098
1.0126
1.00884
1.01232
1.00849
1.01157
1.00835
1.01049
1.00744
1.01015
1.00767
1.00917
1.00782
1.00989
1.00836
1.01103
1.00985
1.01213
1.01077
1.01223
1.01104
1.011
1.00957
1.009
1.00774
1.008
1.00719
1.00823
1.00934
1.01165
1.01249
1.01492
1.01573
1.01486
1.01541
1.01324
1.01326
1.01158
1.01134
1.00985
1.0092
1.00681
1.00801
1.00716
1.0095
1.00932
1.01292
1.01072
1.01428
1.01267
1.01672
1.01372
1.01362
1.00451
1.00657
1.00072
1.0079
1.00021
0.996968
0.987448
1.00791
1.00677
1.00637
1.00165
1.00722
1.00476
1.00891
1.00855
1.00938
1.01123
1.00926
1.01174
1.00958
1.01134
1.0097
1.01064
1.00858
1.01031
1.00888
1.00919
1.00804
1.00957
1.0081
1.00991
1.00929
1.01109
1.01062
1.01228
1.01169
1.01248
1.01088
1.01101
1.00925
1.00919
1.00775
1.00796
1.00708
1.00817
1.0083
1.0109
1.0128
1.01413
1.01479
1.01427
1.01442
1.01254
1.01294
1.00978
1.01044
1.00848
1.00872
1.00648
1.00697
1.00576
1.00836
1.00738
1.01171
1.00876
1.01392
1.01103
1.01641
1.01145
1.01301
1.00284
1.00458
1.00139
1.00307
0.999123
0.998705
0.986409
1.01133
1.00773
1.0058
1.00879
1.00514
1.00876
1.01023
1.00868
1.01287
1.00984
1.01262
1.00969
1.01261
1.00883
1.01173
1.00854
1.01142
1.00883
1.01047
1.00772
1.00997
1.00788
1.00916
1.00788
1.0098
1.0084
1.01091
1.01005
1.0121
1.01077
1.01217
1.01091
1.01106
1.00961
1.00902
1.00782
1.00795
1.00716
1.00821
1.00928
1.01149
1.0124
1.01477
1.01568
1.01482
1.01531
1.01323
1.01319
1.01149
1.01122
1.00978
1.00911
1.00678
1.00784
1.00706
1.00932
1.00915
1.01271
1.01052
1.01403
1.01237
1.01654
1.01356
1.01351
1.0044
1.00636
1.00027
1.00765
0.999956
0.997082
0.986722
1.00871
1.00789
1.00691
1.00202
1.00746
1.00511
1.00927
1.0084
1.00951
1.01087
1.00897
1.01182
1.00944
1.01193
1.00997
1.01174
1.01
1.01042
1.00879
1.00986
1.00877
1.00928
1.00799
1.00944
1.0082
1.00976
1.00924
1.01073
1.01063
1.01221
1.01172
1.01255
1.01112
1.01106
1.00934
1.00928
1.0078
1.00806
1.00711
1.00815
1.00821
1.01088
1.01271
1.01412
1.01475
1.01426
1.01441
1.01255
1.01289
1.00981
1.01038
1.00845
1.00864
1.00645
1.00683
1.0056
1.00817
1.00723
1.01153
1.00859
1.01376
1.01074
1.01621
1.01131
1.01305
1.00262
1.0045
1.00089
1.00296
0.998836
0.99868
0.985821
1.01174
1.0084
1.00585
1.00893
1.00565
1.00887
1.01077
1.00847
1.01295
1.00967
1.0128
1.00985
1.01254
1.00949
1.01176
1.00895
1.01179
1.00891
1.01071
1.0091
1.01024
1.008
1.00995
1.00808
1.00917
1.00795
1.00972
1.00842
1.01108
1.01001
1.01212
1.01083
1.01217
1.01097
1.01112
1.00964
1.00904
1.00786
1.00798
1.00716
1.00819
1.00923
1.01142
1.01229
1.01468
1.0156
1.01475
1.01524
1.01315
1.01309
1.01145
1.01111
1.00974
1.009
1.00671
1.0077
1.00695
1.00912
1.00899
1.0125
1.01033
1.0138
1.01216
1.01632
1.01336
1.01339
1.00429
1.00608
0.999823
1.00741
0.999602
0.997179
0.985967
1.00951
1.00791
1.00696
1.00229
1.00778
1.00543
1.0095
1.00826
1.00965
1.0106
1.00907
1.01165
1.00906
1.01182
1.00987
1.01207
1.01049
1.01137
1.01012
1.01089
1.00895
1.00995
1.00889
1.00924
1.00786
1.00933
1.00821
1.00978
1.00925
1.01071
1.01062
1.01214
1.01157
1.01256
1.01111
1.01105
1.00941
1.00934
1.00782
1.00796
1.0071
1.0081
1.00815
1.01083
1.01255
1.01408
1.01471
1.01427
1.01436
1.01253
1.01286
1.00984
1.01029
1.00839
1.00855
1.00634
1.00654
1.00555
1.008
1.00708
1.01136
1.00842
1.01354
1.01049
1.01597
1.0112
1.01298
1.00234
1.00444
1.00033
1.0029
0.99849
0.9986
0.98533
1.01194
1.00905
1.00631
1.00932
1.00615
1.00892
1.01115
1.00817
1.01283
1.00931
1.01252
1.00952
1.01241
1.00996
1.01188
1.00993
1.01176
1.00926
1.01155
1.00929
1.01078
1.00915
1.01009
1.00802
1.00949
1.00828
1.00914
1.0079
1.00959
1.00841
1.01102
1.0101
1.0121
1.011
1.01205
1.01106
1.01114
1.00972
1.00908
1.00791
1.00812
1.00718
1.00815
1.00914
1.01137
1.01225
1.01456
1.01551
1.01471
1.01518
1.01317
1.01302
1.0113
1.01099
1.00971
1.0089
1.00666
1.00768
1.00687
1.00894
1.0088
1.01228
1.01015
1.01357
1.01189
1.01611
1.01315
1.0133
1.00405
1.00575
0.999431
1.00657
0.999215
0.997011
0.984776
1.00984
1.00856
1.0077
1.00281
1.00811
1.00561
1.00956
1.00818
1.00965
1.01014
1.00883
1.01127
1.00907
1.01165
1.00943
1.01181
1.01009
1.01187
1.01052
1.01145
1.01009
1.01101
1.00909
1.01015
1.00901
1.00958
1.00798
1.0093
1.00828
1.00972
1.00915
1.01067
1.01054
1.01209
1.01158
1.01264
1.01116
1.01111
1.00952
1.00942
1.00788
1.00798
1.0071
1.00811
1.0081
1.01071
1.01242
1.01402
1.01464
1.01425
1.01432
1.01252
1.01282
1.00996
1.01024
1.00838
1.00847
1.00635
1.00644
1.00543
1.00772
1.00698
1.01116
1.00825
1.01328
1.01029
1.01575
1.01108
1.0129
1.00224
1.00426
0.999685
1.00343
0.998184
0.998073
0.98369
1.01222
1.00955
1.00659
1.00933
1.00649
1.00889
1.01137
1.00784
1.0126
1.00894
1.0122
1.00907
1.01214
1.00957
1.01144
1.01015
1.01164
1.01023
1.01181
1.00952
1.011
1.00924
1.01073
1.00925
1.01016
1.00819
1.00937
1.00823
1.00914
1.008
1.00953
1.00851
1.01081
1.01012
1.0121
1.01103
1.0121
1.01111
1.0112
1.0098
1.0091
1.00793
1.00813
1.0072
1.00812
1.00908
1.01127
1.01217
1.01448
1.01544
1.01471
1.01511
1.0131
1.01293
1.01124
1.01083
1.00967
1.0088
1.00665
1.0075
1.00678
1.00883
1.0086
1.01205
1.00997
1.01325
1.01166
1.01584
1.01295
1.01315
1.00362
1.00545
0.999266
1.00626
0.998851
0.997908
0.984188
1.00987
1.00861
1.0082
1.00301
1.00821
1.00559
1.00951
1.00807
1.00934
1.00945
1.00832
1.0107
1.00868
1.01127
1.00937
1.01186
1.00982
1.01185
1.00991
1.01182
1.01063
1.01181
1.01015
1.01098
1.00913
1.01018
1.00895
1.00966
1.00805
1.00929
1.00828
1.00966
1.00911
1.01073
1.01052
1.01204
1.01157
1.01262
1.01119
1.01112
1.00956
1.00947
1.00793
1.00803
1.00706
1.00811
1.00802
1.01064
1.01235
1.01399
1.01456
1.01422
1.01426
1.01254
1.01276
1.00998
1.01021
1.00836
1.00839
1.00634
1.00628
1.00533
1.00756
1.00686
1.01098
1.0081
1.0131
1.01007
1.01553
1.01092
1.01285
1.00226
1.0041
0.999089
1.0032
0.997607
0.999091
0.983312
1.01169
1.00983
1.00633
1.00953
1.00679
1.00873
1.0114
1.00744
1.01223
1.00847
1.01171
1.00855
1.01181
1.00889
1.01066
1.00993
1.01134
1.00989
1.01139
1.01032
1.01174
1.00978
1.01107
1.00952
1.01082
1.0093
1.01014
1.00837
1.00936
1.0081
1.00911
1.00807
1.00954
1.00858
1.01078
1.0101
1.01208
1.01108
1.01214
1.01117
1.01126
1.00987
1.00915
1.00795
1.00816
1.00726
1.00808
1.00902
1.01113
1.01207
1.01436
1.01537
1.01465
1.01502
1.01307
1.01286
1.01123
1.01072
1.00964
1.00873
1.0066
1.00737
1.00666
1.00863
1.00843
1.01178
1.0098
1.01301
1.01142
1.01557
1.01273
1.013
1.00344
1.00515
0.998988
1.00592
0.99837
0.99777
0.983758
1.01028
1.00903
1.00894
1.00316
1.00799
1.00551
1.00943
1.00799
1.00904
1.0092
1.00843
1.01037
1.00834
1.01046
1.00927
1.01154
1.00964
1.01185
1.01001
1.0118
1.0101
1.01176
1.01059
1.01171
1.01011
1.011
1.0091
1.01005
1.00895
1.00963
1.00823
1.00918
1.00824
1.00962
1.00905
1.01069
1.01052
1.012
1.01155
1.01262
1.01121
1.01117
1.0096
1.00952
1.00798
1.00806
1.00704
1.00809
1.00799
1.01064
1.01224
1.01396
1.01449
1.01425
1.01425
1.01249
1.0127
1.00999
1.01015
1.00837
1.0083
1.00632
1.00617
1.00524
1.00741
1.0067
1.01082
1.00795
1.01282
1.00986
1.01528
1.01076
1.01276
1.0021
1.00388
0.998657
1.00302
0.997533
0.998697
0.983015
1.01151
1.01006
1.00666
1.0099
1.00684
1.00853
1.01129
1.00696
1.01166
1.00774
1.01103
1.00784
1.01094
1.00847
1.0102
1.00929
1.01065
1.00988
1.01103
1.01032
1.01153
1.01044
1.01148
1.00991
1.01119
1.00962
1.0108
1.00923
1.01027
1.00839
1.00939
1.00808
1.00923
1.0081
1.00952
1.00856
1.01074
1.01008
1.01209
1.01112
1.01217
1.0112
1.0113
1.00988
1.00919
1.00795
1.0082
1.00729
1.00806
1.00897
1.01106
1.01197
1.01428
1.01531
1.01463
1.01497
1.01311
1.01278
1.0112
1.01063
1.0096
1.00863
1.00656
1.00717
1.00656
1.00843
1.00824
1.01156
1.00959
1.01278
1.01118
1.01528
1.01252
1.01281
1.00312
1.00479
0.998597
1.00561
0.998234
0.997442
0.983407
1.0104
1.00889
1.00937
1.00282
1.00782
1.00552
1.00927
1.00785
1.00867
1.00885
1.008
1.00993
1.00838
1.01031
1.00897
1.01107
1.0094
1.01157
1.00965
1.01178
1.01021
1.0116
1.01025
1.01185
1.01058
1.01161
1.00994
1.01087
1.00935
1.01006
1.00896
1.00964
1.00826
1.00918
1.00819
1.00956
1.00906
1.01064
1.01051
1.01196
1.01153
1.0126
1.01124
1.0112
1.00968
1.00952
1.00805
1.0081
1.00705
1.00807
1.00792
1.01057
1.01215
1.01391
1.01443
1.01423
1.0142
1.0125
1.01266
1.00998
1.01008
1.00833
1.00821
1.00631
1.00608
1.00513
1.00726
1.00654
1.01062
1.00782
1.01253
1.00965
1.01504
1.01057
1.01263
1.00206
1.00365
0.998271
1.00279
0.997358
0.998203
0.98245
1.0116
1.01029
1.00695
1.00994
1.00666
1.00826
1.01105
1.00648
1.01131
1.00768
1.01119
1.00809
1.0099
1.0081
1.00996
1.00893
1.01011
1.00935
1.0103
1.01018
1.01091
1.01033
1.01158
1.01059
1.01156
1.01004
1.01126
1.00971
1.0109
1.00919
1.01028
1.00834
1.00937
1.00808
1.00922
1.0081
1.00953
1.00859
1.01069
1.01009
1.01206
1.01114
1.01218
1.01126
1.01134
1.00994
1.00929
1.00799
1.00819
1.0073
1.00803
1.00886
1.01099
1.01186
1.0142
1.01525
1.0146
1.01489
1.0131
1.01271
1.01116
1.01058
1.00958
1.00854
1.00649
1.00702
1.00639
1.00827
1.00798
1.01136
1.00942
1.01253
1.01093
1.01498
1.01232
1.0126
1.00298
1.00443
0.998262
1.00523
0.997997
0.997083
0.981986
1.01053
1.00911
1.00973
1.00253
1.0077
1.00547
1.00901
1.00775
1.00855
1.00902
1.0084
1.00982
1.00834
1.01019
1.00849
1.01036
1.00894
1.01105
1.00952
1.01172
1.0097
1.01182
1.01014
1.01149
1.01036
1.01182
1.01042
1.01151
1.01018
1.01094
1.00943
1.01006
1.00911
1.00967
1.00824
1.00912
1.00822
1.00955
1.00904
1.01062
1.01049
1.01195
1.01157
1.0126
1.01129
1.01125
1.00971
1.00956
1.0081
1.00816
1.00705
1.00805
1.00793
1.01049
1.01207
1.01383
1.01437
1.01422
1.01417
1.01251
1.01261
1.00999
1.01
1.00831
1.00811
1.00627
1.00598
1.00504
1.00714
1.00636
1.01042
1.00765
1.01225
1.00945
1.01477
1.01038
1.01248
1.00191
1.00337
0.997941
1.00254
0.997076
0.998731
0.981574
1.01174
1.0103
1.00723
1.00969
1.00631
1.00797
1.01071
1.00614
1.01129
1.0078
1.01115
1.0079
1.01055
1.00829
1.00935
1.00848
1.0094
1.00908
1.00993
1.00945
1.01023
1.01029
1.01084
1.01045
1.01148
1.01062
1.01158
1.01031
1.01141
1.00974
1.01088
1.00925
1.0103
1.00835
1.00939
1.00813
1.00926
1.00809
1.0095
1.00856
1.01065
1.01008
1.01206
1.01112
1.01219
1.01127
1.01134
1.00998
1.00938
1.00804
1.00816
1.00731
1.008
1.00874
1.01095
1.01176
1.01413
1.0152
1.01458
1.01481
1.01308
1.01266
1.01109
1.0105
1.00955
1.00848
1.00641
1.00685
1.00627
1.00813
1.00787
1.01112
1.00923
1.01226
1.01067
1.01465
1.01211
1.01241
1.0028
1.00407
0.997925
1.00491
0.997392
0.997752
0.981855
1.0107
1.00934
1.00979
1.00257
1.00749
1.00541
1.00875
1.00775
1.00861
1.00918
1.00846
1.00974