/*--------------------------------*- C++ -*----------------------------------*\
| =========                 |                                                 |
| \\      /  F ield         | OpenFOAM: The Open Source CFD Toolbox           |
|  \\    /   O peration     | Version:  2206                                  |
|   \\  /    A nd           | Website:  www.openfoam.com                      |
|    \\/     M anipulation  |                                                 |
\*---------------------------------------------------------------------------*/
FoamFile
{
    version     2.0;
    format      ascii;
    arch        "LSB;label=32;scalar=64";
    class       volScalarField;
    location    "170";
    object      TPrime2Mean;
}
// * * * * * * * * * * * * * * * * * * * * * * * * * * * * * * * * * * * * * //

dimensions      [0 0 0 2 0 0 0];

internalField   nonuniform List<scalar> 
93840
(
0.000642064
0.00119392
0.00136917
5.31456e-05
0.00355381
0.00226012
0.000155894
0.000211286
0.00102563
0.00111408
0.000500636
0.000844926
0.000147725
0.00066706
0.000350483
0.000107775
0.000630171
0.00236677
0.000676825
0.000640823
0.000710703
6.42172e-05
0.000396478
0.000133084
8.01709e-05
0.000888411
5.57889e-05
0.00206475
1.5434e-05
0.000614632
0.000805353
0.000592282
0.00168797
0.00133408
0.000142106
0.00430368
3.15438e-05
0.000425688
0.00027864
0.000359251
6.64916e-05
0.000290372
0.000639504
0.000172272
0.00444227
2.52407e-05
0.000287214
0.000456325
0.000343816
0.00142834
0.000544834
0.00142347
0.00090271
0.00026803
0.00625824
1.79828e-05
0.000229914
0.000290298
0.000342796
9.84868e-05
0.000580717
0.000145839
0.000127267
0.000579597
0.000237266
0.00448897
2.31835e-05
0.000133955
0.000398089
0.00016019
0.000937198
0.000394231
0.00117149
0.00032363
0.000810547
0.0011246
0.000200087
0.00428806
1.74003e-05
0.000174126
0.000258935
0.000250798
0.000143506
0.000477135
0.000101691
0.000109502
0.000281139
0.00014038
0.000775843
0.000193702
0.00465662
3.02703e-05
0.000130491
0.000421735
0.000155932
0.000652843
0.000198295
0.000716022
0.000210995
0.000529277
0.000320864
0.000672115
0.000930497
0.00014457
0.00423247
1.36155e-05
0.000151873
0.000237747
0.000256548
0.000145294
0.000551351
6.00359e-05
0.000130607
0.000190628
7.45217e-05
0.000393075
0.000190298
0.000714962
0.00019182
0.0045629
2.52378e-05
9.93439e-05
0.000371034
0.000190321
0.000497353
0.000163341
0.0003558
0.000187529
0.000341864
0.000183521
0.000490719
0.000315095
0.000598376
0.000949774
0.000138151
0.0041624
1.37705e-05
0.000102644
0.000250631
0.000238704
0.000131316
0.000468704
6.97321e-05
0.000132305
0.000100144
7.32235e-05
0.000255807
0.000105301
0.000424643
0.000202664
0.000656919
0.000189663
0.00460136
3.41311e-05
8.76216e-05
0.000371431
0.000182309
0.000304004
0.000164248
0.000215948
0.000111974
0.000208215
0.00017733
0.000298739
0.00015358
0.000413875
0.000289273
0.000572018
0.000925262
0.0001368
0.00415857
1.5699e-05
0.000100857
0.000243126
0.000256938
0.00012383
0.000350186
3.07745e-05
0.000152866
8.54054e-05
0.00010176
0.00013251
5.83229e-05
0.000283896
0.000146212
0.000424478
0.000214088
0.000629282
0.000187574
0.00458575
3.92641e-05
7.5614e-05
0.000393567
0.00018512
0.000250248
0.000119027
0.000135834
8.95832e-05
0.000114355
0.000110706
0.00016662
0.000164525
0.000255613
0.000148028
0.000390467
0.000302967
0.000529356
0.000904988
0.000142375
0.00410291
2.61431e-05
0.00010278
0.000259307
0.000249933
8.71042e-05
0.000332791
2.56245e-05
0.000143341
5.76525e-05
0.00011894
9.50616e-05
8.07862e-05
0.000155508
5.54542e-05
0.000288099
0.000145388
0.000397757
0.000208387
0.000595269
0.000187281
0.00455936
4.37694e-05
6.74088e-05
0.000383087
0.000154484
0.00021545
0.000126702
6.19327e-05
5.15577e-05
6.83789e-05
8.75005e-05
8.1064e-05
0.000112864
0.000139586
0.000152741
0.000243289
0.000147217
0.000338128
0.000303344
0.000459466
0.000892406
0.000149002
0.00399118
3.82932e-05
0.000126782
0.000232519
0.000240798
6.77067e-05
0.000262113
2.6711e-05
0.000117749
4.69244e-05
0.000104992
6.50085e-05
0.000104091
0.00010448
7.13673e-05
0.000170679
5.1339e-05
0.000277787
0.000135555
0.000361159
0.000191356
0.000573049
0.000184789
0.00463302
4.75521e-05
7.68212e-05
0.000350936
0.000152248
0.000192934
0.000117621
5.03269e-05
2.87919e-05
2.6881e-05
5.96294e-05
4.8627e-05
8.54404e-05
7.15413e-05
0.000112608
0.000130648
0.000142097
0.000206204
0.000155209
0.000283179
0.00032296
0.000415444
0.000875769
0.000159589
0.00388307
4.73177e-05
0.000130852
0.000196663
0.000290573
6.30717e-05
0.00018165
2.41862e-05
8.22546e-05
3.82823e-05
8.28205e-05
5.06952e-05
9.18328e-05
6.50094e-05
8.69726e-05
0.00011353
5.18073e-05
0.000185243
6.62889e-05
0.000262316
0.000113924
0.000339374
0.000192574
0.000552397
0.000194721
0.00474184
4.74666e-05
7.62937e-05
0.000385279
0.00018526
0.000154432
0.000120585
3.23216e-05
4.08409e-05
1.76277e-05
2.94546e-05
1.73709e-05
6.53762e-05
3.89165e-05
9.50171e-05
5.90106e-05
0.000108027
0.000108677
0.000139229
0.000164146
0.000167281
0.000236137
0.000339904
0.000381541
0.000856981
0.000209682
0.00498427
4.76963e-05
0.000140139
0.000182112
0.000248716
6.22878e-05
0.000124838
1.73065e-05
3.82234e-05
2.2219e-05
5.06867e-05
4.75477e-05
7.22642e-05
5.68162e-05
7.7462e-05
7.30141e-05
7.48333e-05
0.000118027
5.64562e-05
0.000160118
7.67266e-05
0.000254489
0.000100388
0.000318917
0.000187429
0.000559477
0.000147812
0.00438165
4.95386e-05
8.42321e-05
0.00036384
0.000189985
0.000155744
7.77935e-05
2.8718e-05
5.2219e-05
1.39512e-05
2.84781e-05
1.50689e-05
2.79108e-05
1.56847e-05
6.95081e-05
3.55667e-05
9.63913e-05
5.40091e-05
0.000108257
9.92286e-05
0.00015304
0.000114402
0.000164805
0.000211776
0.000351109
0.000329772
0.00090507
0.000128116
0.0043434
4.75664e-05
0.000131194
0.000183008
0.000238376
3.82331e-05
9.41488e-05
1.53999e-05
1.84303e-05
1.11355e-05
2.05102e-05
1.98747e-05
3.73539e-05
4.86354e-05
6.98276e-05
6.27979e-05
6.60557e-05
7.64745e-05
6.61194e-05
0.000117907
5.66439e-05
0.000156308
7.59008e-05
0.000263407
9.74106e-05
0.000315375
0.000194726
0.000593722
0.000157514
0.00403526
6.0232e-05
9.00178e-05
0.000340886
0.000158781
0.000121736
6.4911e-05
1.55593e-05
3.77391e-05
1.6313e-05
4.68505e-05
6.34948e-06
2.37894e-05
1.59707e-05
2.79067e-05
1.80472e-05
6.75135e-05
3.55311e-05
9.60975e-05
4.95406e-05
0.000109776
8.79397e-05
0.000151365
0.000104545
0.000177817
0.000197934
0.000360889
0.000293887
0.000824297
0.000158242
0.00413074
5.26799e-05
0.000120698
0.00018663
0.000233728
2.35745e-05
8.87977e-05
1.06324e-05
1.49133e-05
7.64396e-06
1.62542e-05
9.32625e-06
1.7757e-05
2.21509e-05
3.32079e-05
4.80366e-05
6.11564e-05
5.69238e-05
5.83499e-05
7.51136e-05
3.39809e-05
0.000112605
5.43675e-05
0.00015656
8.46937e-05
0.000271006
0.000108401
0.000308317
0.000209823
0.000566483
0.000157518
0.00389569
7.25137e-05
0.000105958
0.000308409
0.000141767
0.000106929
6.81717e-05
1.74831e-05
4.33436e-05
2.12611e-05
3.64073e-05
1.08763e-05
4.33147e-05
8.37213e-06
2.09525e-05
1.75944e-05
2.75889e-05
1.98916e-05
6.50644e-05
3.3101e-05
8.97334e-05
5.37687e-05
0.000103122
7.92076e-05
0.000154018
0.000102811
0.000178525
0.000159345
0.000365821
0.000266208
0.000805789
0.000169161
0.00399517
5.68416e-05
0.000129454
0.000212711
0.000213548
2.10143e-05
6.78379e-05
8.80469e-06
1.79231e-05
1.62155e-05
1.2035e-05
9.75855e-06
1.36117e-05
1.09727e-05
1.7985e-05
2.22121e-05
3.11968e-05
4.11542e-05
5.65603e-05
5.18303e-05
5.23835e-05
7.34784e-05
3.93451e-05
0.000115863
6.12089e-05
0.000155514
8.53062e-05
0.000271228
0.00010406
0.000295838
0.000214661
0.000586453
0.000162396
0.0038203
6.92351e-05
0.000141126
0.000243332
0.000124231
9.8001e-05
6.46339e-05
2.42879e-05
5.48296e-05
1.85227e-05
4.77728e-05
2.10605e-05
3.51035e-05
5.05648e-06
3.35044e-05
8.31424e-06
1.48293e-05
2.04747e-05
2.55242e-05
2.21649e-05
6.01549e-05
3.24409e-05
8.84366e-05
5.25022e-05
0.000100124
6.96257e-05
0.000153219
9.94131e-05
0.000185825
0.00014967
0.00037698
0.000242983
0.000745473
0.000183002
0.00390272
5.25466e-05
0.000118764
0.000255001
0.000187126
1.67951e-05
3.63075e-05
1.35137e-05
1.59723e-05
1.79992e-05
2.01263e-05
1.72488e-05
1.21349e-05
1.08269e-05
1.10973e-05
9.71064e-06
1.66378e-05
2.22105e-05
3.08098e-05
3.66041e-05
5.17944e-05
4.76151e-05
5.10999e-05
7.04155e-05
3.8745e-05
0.000116344
7.15111e-05
0.000155012
8.80423e-05
0.000270621
0.000108044
0.000284523
0.000163982
0.000585614
0.000160221
0.00374419
6.81178e-05
0.000154581
0.000207333
9.68509e-05
9.06505e-05
5.71733e-05
2.96923e-05
6.29709e-05
2.59684e-05
5.37748e-05
1.72971e-05
4.54898e-05
1.81714e-05
3.15467e-05
5.02883e-06
2.91156e-05
8.80144e-06
1.21522e-05
2.17042e-05
2.34277e-05
2.33394e-05
5.52227e-05
3.19477e-05
8.56997e-05
5.17849e-05
9.74813e-05
6.16063e-05
0.000152391
9.63336e-05
0.000191394
0.000146011
0.000379217
0.00024813
0.000726257
0.000188279
0.0038137
5.10087e-05
0.000106527
0.000295634
0.000157829
1.42495e-05
3.13994e-05
2.24277e-05
2.49637e-05
2.66751e-05
1.54719e-05
1.56661e-05
1.94215e-05
1.6355e-05
1.08533e-05
1.0374e-05
8.80611e-06
9.33767e-06
1.49336e-05
2.22945e-05
3.13412e-05
3.10719e-05
4.38874e-05
4.5261e-05
4.08308e-05
6.84765e-05
4.17285e-05
0.00011231
7.54345e-05
0.000154182
8.60331e-05
0.000267099
0.000106683
0.000282597
0.000172114
0.000582267
0.000156236
0.00366363
5.83793e-05
0.00017796
0.000148248
7.49723e-05
9.3826e-05
4.67951e-05
2.5946e-05
5.31421e-05
3.69884e-05
6.41761e-05
2.31833e-05
5.37031e-05
1.72556e-05
4.18847e-05
1.62728e-05
3.08581e-05
5.3826e-06
2.49603e-05
9.51057e-06
1.01914e-05
2.16646e-05
2.28938e-05
2.68965e-05
4.02573e-05
3.63884e-05
8.31371e-05
5.05344e-05
9.62874e-05
6.5521e-05
0.000146308
9.67362e-05
0.000194459
0.000145213
0.000382319
0.000221079
0.000694766
0.00019013
0.0037273
4.84635e-05
9.44311e-05
0.000335766
0.000117925
1.6723e-05
3.18874e-05
2.09637e-05
1.91955e-05
4.4395e-05
1.64419e-05
3.21453e-05
1.85857e-05
1.61923e-05
1.75701e-05
1.58509e-05
9.2544e-06
9.97552e-06
8.40565e-06
1.15637e-05
8.83004e-06
2.28429e-05
3.10593e-05
2.90214e-05
4.42666e-05
4.97903e-05
4.37649e-05
6.76063e-05
4.36835e-05
0.000109457
7.4552e-05
0.000148785
8.9358e-05
0.000266808
0.000108793
0.000277496
0.000184427
0.000582242
0.000148149
0.00358466
5.15264e-05
0.000187241
9.11267e-05
9.02213e-05
6.09155e-05
3.13738e-05
1.84002e-05
4.58772e-05
3.06523e-05
6.10147e-05
2.71885e-05
6.08236e-05
2.14682e-05
5.31397e-05
1.62024e-05
4.03093e-05
1.47244e-05
2.89117e-05
5.99474e-06
2.17893e-05
9.31973e-06
9.46171e-06
2.20365e-05
2.21651e-05
2.49705e-05
3.99894e-05
3.5622e-05
8.02339e-05
5.11611e-05
9.76494e-05
6.50369e-05
0.000152646
9.73986e-05
0.000194546
0.000137606
0.000379799
0.000200956
0.000674444
0.000191264
0.00364084
4.44584e-05
7.81717e-05
0.000347625
8.76661e-05
2.53536e-05
3.24795e-05
2.14607e-05
1.16228e-05
3.97815e-05
2.48868e-05
5.24993e-05
1.67828e-05
3.19381e-05
2.07404e-05
1.85916e-05
1.59405e-05
1.58074e-05
8.56563e-06
1.06683e-05
7.37303e-06
1.37542e-05
8.29586e-06
2.12652e-05
3.19435e-05
2.75867e-05
4.28607e-05
4.91148e-05
4.28013e-05
6.76813e-05
4.56757e-05
0.000103775
7.69723e-05
0.000143487
9.14597e-05
0.000260294
0.000107909
0.000269014
0.000201407
0.000590094
0.000140997
0.0035085
4.32162e-05
0.000190983
7.35742e-05
9.03611e-05
4.29515e-05
1.99269e-05
1.55324e-05
3.13996e-05
2.34867e-05
5.47134e-05
2.35128e-05
5.95888e-05
2.71736e-05
6.40465e-05
2.04162e-05
4.68134e-05
1.60027e-05
3.88514e-05
1.29117e-05
2.86633e-05
6.21636e-06
2.05251e-05
1.03734e-05
9.75317e-06
2.1625e-05
2.04288e-05
2.51153e-05
3.99842e-05
3.53331e-05
7.89656e-05
5.34671e-05
9.75128e-05
6.61247e-05
0.000151255
9.92373e-05
0.00019644
0.000134606
0.000377575
0.000182215
0.000666408
0.000193013
0.00355077
4.44039e-05
6.66653e-05
0.000338312
7.31371e-05
3.19204e-05
3.27138e-05
2.04085e-05
8.62802e-06
3.1275e-05
1.58866e-05
3.95531e-05
2.29388e-05
4.6071e-05
1.83562e-05
2.85215e-05
1.97441e-05
1.51951e-05
1.48409e-05
1.51235e-05
8.11806e-06
9.91001e-06
6.70177e-06
1.41549e-05
8.30395e-06
2.00868e-05
2.92776e-05
2.67702e-05
4.20471e-05
4.86703e-05
4.39e-05
6.8575e-05
4.71342e-05
9.99352e-05
8.03445e-05
0.000140928
9.43266e-05
0.000254844
0.000106748
0.000258734
0.000214773
0.00059162
0.000132477
0.0033934
3.85253e-05
0.000187932
5.82221e-05
0.000102437
2.99256e-05
1.46294e-05
1.22916e-05
3.20968e-05
1.95048e-05
4.60632e-05
1.76655e-05
4.77401e-05
2.15366e-05
5.4309e-05
2.55619e-05
5.44059e-05
1.81598e-05
4.66263e-05
1.56252e-05
3.83373e-05
1.20474e-05
2.71073e-05
6.74847e-06
1.95153e-05
1.20599e-05
9.81151e-06
2.25827e-05
1.88343e-05
2.53562e-05
3.99011e-05
3.59221e-05
7.8157e-05
5.45644e-05
9.35246e-05
6.61061e-05
0.000148313
9.80219e-05
0.000196477
0.000129808
0.000369996
0.000170437
0.00065666
0.000193045
0.00340856
4.37569e-05
5.83301e-05
0.000322525
5.62372e-05
3.52415e-05
3.4456e-05
1.96365e-05
5.94121e-06
2.47479e-05
1.85709e-05
2.97854e-05
1.57864e-05
4.02897e-05
2.0426e-05
4.42921e-05
1.38308e-05
3.07647e-05
1.87958e-05
1.55698e-05
1.41134e-05
1.54242e-05
1.08993e-05
1.02016e-05
6.80862e-06
1.41193e-05
8.75389e-06
2.03194e-05
2.64214e-05
2.69492e-05
3.74127e-05
4.80363e-05
4.47535e-05
6.8427e-05
4.85893e-05
9.62601e-05
8.29587e-05
0.000139026
9.64714e-05
0.000247253
0.000106904
0.000251086
0.000228988
0.000596389
0.00013142
0.00326487
3.43614e-05
0.000168139
5.74081e-05
9.04459e-05
2.70042e-05
1.64523e-05
1.7286e-05
2.55753e-05
1.69737e-05
3.99732e-05
1.92519e-05
4.29413e-05
1.46232e-05
4.28357e-05
2.10941e-05
5.03841e-05
2.50746e-05
4.8917e-05
1.71101e-05
4.58179e-05
1.45643e-05
3.64355e-05
7.82408e-06
2.51259e-05
6.93133e-06
1.79324e-05
1.20345e-05
9.42321e-06
2.38821e-05
1.80669e-05
2.72645e-05
3.908e-05
3.66045e-05
7.84662e-05
5.64178e-05
9.36004e-05
6.83631e-05
0.000143606
9.7683e-05
0.000194421
0.000125527
0.000365932
0.00016096
0.000641145
0.000200129
0.00328638
4.92707e-05
4.8928e-05
0.000288944
5.18473e-05
3.88936e-05
2.90533e-05
1.36885e-05
7.71844e-06
2.35822e-05
1.66652e-05
2.14244e-05
1.77263e-05
3.22989e-05
1.54481e-05
3.87627e-05
1.78214e-05
5.46319e-05
1.4504e-05
3.2826e-05
1.70718e-05
1.73286e-05
1.35881e-05
1.47602e-05
8.3834e-06
9.61352e-06
6.6968e-06
1.45754e-05
1.05969e-05
2.011e-05
2.35745e-05
2.68353e-05
3.59096e-05
4.5848e-05
4.51755e-05
7.01835e-05
4.96591e-05
9.37098e-05
8.22969e-05
0.000135444
9.44507e-05
0.000242247
0.000102686
0.000240838
0.000240891
0.000601987
0.000130142
0.00315499
3.33896e-05
0.000179906
5.7436e-05
9.30868e-05
2.78583e-05
1.69751e-05
1.62295e-05
2.27047e-05
2.57437e-05
3.24461e-05
1.33557e-05
3.45686e-05
1.44455e-05
4.08473e-05
1.44308e-05
4.12969e-05
2.09678e-05
4.12495e-05
2.66151e-05
4.30412e-05
1.54505e-05
4.57622e-05
1.40503e-05
3.62142e-05
7.73633e-06
2.38895e-05
7.54271e-06
1.26952e-05
1.25928e-05
9.8179e-06
2.50111e-05
1.7763e-05
2.80109e-05
4.05653e-05
3.72175e-05
7.76212e-05
5.75136e-05
8.98379e-05
7.21171e-05
0.000140686
9.86871e-05
0.000191119
0.00012013
0.000360893
0.000150405
0.000628375
0.000206761
0.00317922
5.85556e-05
3.9142e-05
0.000279685
3.61944e-05
4.11263e-05
2.88086e-05
1.93489e-05
1.19771e-05
2.5969e-05
1.55472e-05
2.0805e-05
1.35153e-05
1.91705e-05
1.72984e-05
3.50951e-05
1.46718e-05
3.83187e-05
1.60696e-05
4.59562e-05
1.44839e-05
3.37337e-05
1.78831e-05
1.86175e-05
1.28848e-05
1.61142e-05
8.32709e-06
9.88822e-06
6.61819e-06
1.38737e-05
1.08695e-05
1.9311e-05
2.47383e-05
2.73606e-05
3.39061e-05
4.56884e-05
4.64255e-05
7.03968e-05
5.25453e-05
9.1628e-05
8.4656e-05
0.000129869
9.27728e-05
0.000229787
9.15755e-05
0.000228353
0.000252118
0.000603495
0.000128885
0.00305261
3.29075e-05
0.000211958
4.32977e-05
9.20347e-05
3.07177e-05
1.82704e-05
1.69936e-05
2.23178e-05
2.4091e-05
3.58388e-05
1.40725e-05
3.07068e-05
1.33657e-05
3.05802e-05
1.42654e-05
3.29693e-05
1.44043e-05
4.00401e-05
2.15748e-05
4.11422e-05
2.60421e-05
3.98397e-05
1.47905e-05
4.37983e-05
1.34315e-05
3.4293e-05
7.97494e-06
2.3679e-05
8.08701e-06
1.16934e-05
1.29965e-05
1.04174e-05
2.49924e-05
1.73172e-05
2.8565e-05
4.09246e-05
3.80358e-05
7.81597e-05
5.94987e-05
8.73512e-05
7.32189e-05
0.00013783
9.83008e-05
0.000183114
0.000121088
0.000348546
0.000146008
0.000609896
0.000212827
0.00306987
6.2583e-05
3.56857e-05
0.000270982
2.47868e-05
3.26203e-05
2.60056e-05
3.12311e-05
1.21591e-05
3.61789e-05
1.33861e-05
2.92723e-05
1.37327e-05
1.88386e-05
1.24172e-05
1.93769e-05
1.57494e-05
3.46381e-05
1.45618e-05
3.55535e-05
1.5554e-05
4.39579e-05
1.43506e-05
3.31848e-05
1.57291e-05
1.9553e-05
1.15252e-05
1.55919e-05
7.52967e-06
1.02235e-05
7.01373e-06
1.5089e-05
1.17052e-05
1.73978e-05
2.43573e-05
2.78727e-05
3.32906e-05
4.60432e-05
4.77671e-05
7.05902e-05
5.38327e-05
8.95203e-05
8.79163e-05
0.000125516
9.1304e-05
0.00022398
9.09712e-05
0.000222377
0.000266366
0.000610339
0.000128468
0.00293709
3.06675e-05
0.000216232
3.37635e-05
9.50868e-05
3.41209e-05
1.75956e-05
2.45387e-05
2.34567e-05
2.20958e-05
4.036e-05
1.85692e-05
3.50881e-05
1.37032e-05
2.84233e-05
1.57096e-05
2.55554e-05
1.48558e-05
3.12201e-05
1.53688e-05
3.96484e-05
2.26347e-05
4.04551e-05
2.48507e-05
3.96486e-05
1.53632e-05
4.18808e-05
1.34022e-05
3.18264e-05
8.11196e-06
2.05237e-05
8.835e-06
1.11474e-05
1.34464e-05
1.12233e-05
2.53586e-05
1.73314e-05
2.92905e-05
4.0359e-05
3.91867e-05
7.88326e-05
6.05494e-05
8.53709e-05
7.43923e-05
0.000135085
9.80903e-05
0.000178571
0.000118782
0.000341953
0.000136706
0.000593194
0.000218149
0.00295092
6.67564e-05
3.36303e-05
0.00030186
1.73391e-05
2.09348e-05
1.75157e-05
5.17924e-05
1.03869e-05
4.70756e-05
1.75893e-05
3.93277e-05
1.79222e-05
2.90914e-05
1.27472e-05
2.01018e-05
1.36184e-05
1.93595e-05
1.44636e-05
3.44966e-05
1.46967e-05
3.37928e-05
1.46122e-05
4.00653e-05
1.39822e-05
3.3287e-05
1.47126e-05
1.94602e-05
1.12734e-05
1.70962e-05
6.88905e-06
1.09456e-05
7.41321e-06
1.52703e-05
1.2014e-05
1.82798e-05
2.48497e-05
2.77407e-05
3.31074e-05
4.56191e-05
4.91456e-05
7.12073e-05
5.63876e-05
8.25987e-05
9.02818e-05
0.00012165
8.56237e-05
0.000215567
9.09527e-05
0.000209989
0.000278874
0.000611249
0.000130839
0.00282189
2.90905e-05
0.000222535
2.56632e-05
8.94007e-05
4.20103e-05
2.58701e-05
2.61763e-05
3.33941e-05
2.16821e-05
5.43785e-05
1.89282e-05
4.20391e-05
1.7797e-05
3.50619e-05
1.6257e-05
2.62361e-05
1.4618e-05
2.18863e-05
1.41479e-05
2.94505e-05
1.44912e-05
3.73307e-05
2.29561e-05
4.01641e-05
2.33703e-05
3.78517e-05
1.53755e-05
4.07209e-05
1.21592e-05
2.64651e-05
8.5902e-06
1.88103e-05
9.28586e-06
1.10818e-05
1.4151e-05
1.25182e-05
2.54509e-05
1.7753e-05
2.96443e-05
4.05278e-05
4.04119e-05
7.91165e-05
6.2003e-05
8.64855e-05
7.55287e-05
0.000129188
0.000101107
0.000178877
0.000117376
0.00033257
0.000126644
0.000577749
0.000224418
0.00284029
7.18805e-05
3.28959e-05
0.000304415
1.01685e-05
2.64919e-05
1.54295e-05
6.16334e-05
1.18009e-05
5.49643e-05
2.6505e-05
4.58313e-05
2.43899e-05
3.95473e-05
1.76108e-05
3.04414e-05
1.42483e-05
1.79717e-05
1.46605e-05
1.8833e-05
1.41556e-05
3.4209e-05
1.47561e-05
3.32572e-05
1.45158e-05
3.46663e-05
1.30262e-05
3.36616e-05
1.32121e-05
1.89081e-05
9.79661e-06
1.76646e-05
6.60495e-06
1.17486e-05
7.39776e-06
1.577e-05
1.2195e-05
1.5683e-05
2.49923e-05
2.83668e-05
3.32695e-05
4.56333e-05
4.7852e-05
7.04693e-05
5.83788e-05
8.14468e-05
9.22647e-05
0.000115922
8.76814e-05
0.000210105
9.00955e-05
0.000200772
0.000288807
0.000609358
0.000133472
0.00271442
2.72943e-05
0.000219353
2.87225e-05
5.65297e-05
4.35117e-05
4.86152e-05
2.93402e-05
4.68752e-05
1.91072e-05
6.1296e-05
1.5583e-05
5.52616e-05
1.86509e-05
4.40312e-05
1.76954e-05
3.49108e-05
1.75767e-05
2.58653e-05
1.35211e-05
1.84606e-05
1.45132e-05
2.66163e-05
1.51672e-05
3.11893e-05
2.19563e-05
4.04994e-05
2.08431e-05
3.56643e-05
1.55078e-05
3.88115e-05
1.29678e-05
2.50823e-05
8.70993e-06
1.75773e-05
9.48806e-06
1.13512e-05
1.44905e-05
1.37987e-05
2.49114e-05
1.70085e-05
2.98907e-05
4.05135e-05
4.1612e-05
8.00424e-05
6.33298e-05
8.38336e-05
7.73575e-05
0.000128683
0.000101977
0.000175982
0.000116923
0.00032488
0.000118596
0.000567843
0.000230816
0.00272682
7.43286e-05
2.91606e-05
0.000319063
9.92395e-06
1.80071e-05
1.3839e-05
6.66082e-05
1.217e-05
4.89784e-05
3.18528e-05
4.82698e-05
2.62147e-05
4.43129e-05
2.41404e-05
3.88097e-05
2.05515e-05
2.89795e-05
1.60647e-05
1.83418e-05
1.4369e-05
1.33653e-05
1.30065e-05
3.3286e-05
1.51248e-05
3.01761e-05
1.37067e-05
3.40961e-05
1.27192e-05
3.42906e-05
1.2933e-05
1.97169e-05
1.04986e-05
1.82175e-05
6.61816e-06
1.25918e-05
8.41302e-06
1.65626e-05
1.24302e-05
1.59656e-05
2.48318e-05
2.94423e-05
3.34648e-05
4.51915e-05
4.88499e-05
7.10907e-05
5.9642e-05
8.05896e-05
9.30954e-05
0.000114083
8.81887e-05
0.00020526
8.98123e-05
0.000191144
0.000240833
0.000611163
0.00013865
0.00259978
2.50684e-05
0.000214012
3.70668e-05
6.49139e-05
4.34066e-05
6.033e-05
3.14499e-05
5.8808e-05
1.96892e-05
5.5866e-05
1.94118e-05
6.60462e-05
1.75654e-05
5.28156e-05
1.85236e-05
4.41548e-05
1.77131e-05
3.57915e-05
1.83802e-05
2.53691e-05
1.40786e-05
1.69599e-05
1.39654e-05
2.67214e-05
1.54382e-05
2.54592e-05
2.12656e-05
3.75604e-05
1.9348e-05
3.55701e-05
1.62053e-05
3.65996e-05
1.03385e-05
2.35121e-05
8.74623e-06
1.72643e-05
1.00567e-05
1.11597e-05
1.48571e-05
1.45754e-05
2.56555e-05
1.80814e-05
3.09247e-05
4.10449e-05
4.255e-05
8.0697e-05
6.49597e-05
8.17576e-05
7.88714e-05
0.000126367
0.000103036
0.000173706
0.000112997
0.000308864
0.000138305
0.000553003
0.000234879
0.00260715
7.45523e-05
2.91892e-05
0.000339297
1.38262e-05
2.00786e-05
2.57512e-05
6.86038e-05
1.41568e-05
4.12993e-05
4.33252e-05
3.96849e-05
3.36985e-05
4.63907e-05
2.93164e-05
4.23893e-05
2.64667e-05
3.74054e-05
2.25673e-05
2.78007e-05
1.69484e-05
1.82275e-05
1.4039e-05
1.32495e-05
1.31928e-05
3.26038e-05
1.44559e-05
2.71067e-05
1.38688e-05
3.42297e-05
1.22114e-05
3.37242e-05
1.09971e-05
2.00957e-05
1.03624e-05
1.75598e-05
7.33298e-06
1.31925e-05
8.8486e-06
1.67063e-05
1.31041e-05
1.6873e-05
2.4635e-05
2.97691e-05
3.41661e-05
4.54056e-05
4.97674e-05
7.17123e-05
6.0749e-05
7.94643e-05
8.43595e-05
0.000110915
8.8883e-05
0.000198865
9.01108e-05
0.000185045
0.000246091
0.000610883
0.000141564
0.00247594
2.58683e-05
0.000187827
6.76324e-05
7.5383e-05
5.91291e-05
7.8816e-05
2.69707e-05
6.31826e-05
1.99604e-05
5.22719e-05
2.50954e-05
5.69227e-05
2.02223e-05
5.27208e-05
1.78684e-05
5.06214e-05
2.20557e-05
4.33564e-05
1.83856e-05
3.55689e-05
1.83713e-05
2.53647e-05
1.40129e-05
1.67314e-05
1.2783e-05
2.23661e-05
1.51587e-05
2.54999e-05
2.09143e-05
3.72823e-05
1.82449e-05
3.58911e-05
1.65374e-05
3.5582e-05
1.00757e-05
2.26005e-05
8.83677e-06
1.71941e-05
1.08842e-05
1.22607e-05
1.5079e-05
1.57012e-05
2.57903e-05
1.86647e-05
3.18699e-05
4.23383e-05
4.3635e-05
8.01619e-05
6.57703e-05
7.96061e-05
8.61687e-05
0.000126282
0.000102143
0.000170214
0.000107457
0.000299575
0.000133966
0.000542815
0.000238267
0.00248299
7.28786e-05
2.67192e-05
0.00033913
2.13313e-05
2.10134e-05
2.26625e-05
7.23907e-05
1.55154e-05
4.45329e-05
5.17434e-05
3.11324e-05
3.7756e-05
4.00431e-05
3.28622e-05
4.15686e-05
2.86103e-05
4.37032e-05
2.73673e-05
3.51614e-05
2.22379e-05
2.7419e-05
1.79327e-05
1.86861e-05
1.39845e-05
1.34541e-05
1.33865e-05
3.18046e-05
1.34979e-05
2.57935e-05
1.37066e-05
3.04765e-05
1.15763e-05
3.20826e-05
1.06778e-05
1.98702e-05
1.02183e-05
1.71911e-05
7.83431e-06
1.42447e-05
9.06854e-06
1.72079e-05
1.38788e-05
1.73728e-05
2.46768e-05
2.95578e-05
3.47106e-05
4.47326e-05
5.05469e-05
7.16074e-05
6.17528e-05
7.88447e-05
8.81051e-05
0.0001085
8.96443e-05
0.000189567
9.42316e-05
0.000174729
0.000251489
0.000607974
0.000144264
0.00235623
2.2444e-05
0.000154059
6.17558e-05
7.66688e-05
5.51308e-05
8.11454e-05
2.9895e-05
5.70101e-05
2.36713e-05
4.96959e-05
2.15304e-05
5.21698e-05
2.23644e-05
4.92527e-05
1.76231e-05
4.86036e-05
1.87056e-05
4.92703e-05
2.19077e-05
4.1224e-05
2.0966e-05
3.67004e-05
1.82683e-05
2.57316e-05
1.35424e-05
1.70705e-05
1.32398e-05
2.21155e-05
1.48692e-05
2.49999e-05
2.03251e-05
3.5679e-05
1.75694e-05
3.66543e-05
1.64645e-05
3.40934e-05
1.04462e-05
2.14748e-05
8.9374e-06
1.69364e-05
1.12439e-05
1.27004e-05
1.55844e-05
1.64981e-05
2.65141e-05
2.00485e-05
3.26764e-05
4.24984e-05
4.52599e-05
8.02522e-05
6.59592e-05
7.81654e-05
8.53137e-05
0.000124429
0.000102609
0.000166268
0.000104099
0.00028537
0.000131506
0.000530822
0.000243145
0.0023578
6.89203e-05
2.26311e-05
0.000355041
3.81563e-05
2.08218e-05
2.75952e-05
6.80254e-05
1.10269e-05
4.49436e-05
6.24195e-05
2.80565e-05
4.39076e-05
2.91862e-05
3.74945e-05
3.34724e-05
3.20182e-05
4.25763e-05
2.78244e-05
4.29087e-05
2.28977e-05
3.66728e-05
2.40305e-05
2.81206e-05
1.92885e-05
1.87084e-05
1.41045e-05
1.32622e-05
1.26572e-05
3.00735e-05
1.33235e-05
2.61051e-05
1.41862e-05
3.00317e-05
1.15856e-05
3.04856e-05
1.04801e-05
1.92308e-05
1.01091e-05
1.64159e-05
7.95173e-06
1.4947e-05
1.02272e-05
1.78621e-05
1.46122e-05
1.84554e-05
2.55616e-05
3.04171e-05
3.50151e-05
4.55009e-05
5.09239e-05
7.20053e-05
6.18742e-05
7.80058e-05
8.97166e-05
0.000106005
8.98668e-05
0.000183327
9.63595e-05
0.000169936
0.000257496
0.00060476
0.000147369
0.00223567
2.24479e-05
0.000138071
7.70321e-05
8.28877e-05
5.85428e-05
9.09991e-05
3.22877e-05
4.73608e-05
2.9064e-05
4.67391e-05
2.39348e-05
5.09353e-05
2.52855e-05
4.65541e-05
2.2316e-05
4.53753e-05
1.84068e-05
4.63835e-05
1.84775e-05
4.68256e-05
2.46144e-05
3.95528e-05
2.14072e-05
3.59233e-05
1.86049e-05
2.71481e-05
1.34888e-05
1.68181e-05
1.28822e-05
2.24809e-05
1.47918e-05
2.51518e-05
1.97541e-05
3.56417e-05
1.69012e-05
3.67956e-05
1.64444e-05
3.28997e-05
1.07409e-05
2.04489e-05
9.04933e-06
1.6658e-05
1.14484e-05
1.29061e-05
1.63821e-05
1.70075e-05
2.73387e-05
2.06999e-05
3.41216e-05
4.19036e-05
4.46443e-05
7.98432e-05
6.61985e-05
7.6774e-05
8.52367e-05
0.000121925
0.000103728
0.000164531
0.000100604
0.000274217
0.000127381
0.000519177
0.00024813
0.00223205
6.83549e-05
1.91824e-05
0.000352456
4.85675e-05
2.02337e-05
2.83567e-05
5.43544e-05
1.32374e-05
5.37001e-05
6.51357e-05
3.69151e-05
4.92245e-05
2.16816e-05
3.78989e-05
2.86342e-05
3.13254e-05
3.27902e-05
3.07695e-05
3.9842e-05
3.01319e-05
4.43397e-05
2.389e-05
3.7197e-05
2.6857e-05
2.91412e-05
2.00735e-05
1.77632e-05
1.37138e-05
1.35923e-05
1.22829e-05
2.97134e-05
1.31666e-05
2.39792e-05
1.43378e-05
2.96255e-05
1.07933e-05
2.96999e-05
1.06515e-05
1.81364e-05
1.01752e-05
1.57312e-05
8.25884e-06
1.54582e-05
1.04179e-05
1.70487e-05
1.54998e-05
1.92417e-05
2.59297e-05
2.97873e-05
3.64726e-05
4.68619e-05
5.38041e-05
7.2328e-05
6.39694e-05
7.76163e-05
9.09145e-05
0.000104261
9.04431e-05
0.000173036
8.81532e-05
0.000165664
0.000263849
0.000599638
0.000152907
0.00211501
2.16117e-05
0.000121134
8.52606e-05
9.18053e-05
6.05964e-05
9.09167e-05
3.01901e-05
3.72917e-05
3.82862e-05
4.00196e-05
2.22075e-05
4.53507e-05
2.26867e-05
4.90001e-05
2.20558e-05
3.97759e-05
2.29537e-05
3.99181e-05
1.99853e-05
4.49184e-05
1.93618e-05
4.66846e-05
2.62583e-05
4.10644e-05
2.22578e-05
3.5896e-05
1.88114e-05
2.69491e-05
1.30191e-05
1.71628e-05
1.26204e-05
2.24108e-05
1.45973e-05
2.38307e-05
1.91021e-05
3.54406e-05
1.59546e-05
3.62534e-05
1.49998e-05
3.12228e-05
1.04934e-05
1.92886e-05
9.37828e-06
1.63489e-05
1.13965e-05
1.3487e-05
1.74009e-05
1.77191e-05
2.72793e-05
2.05033e-05
3.6052e-05
4.17819e-05
4.54203e-05
7.95787e-05
6.65482e-05
7.61229e-05
8.56855e-05
0.000119806
0.000104905
0.000161286
0.000106508
0.000263388
0.000122285
0.000508977
0.000255092
0.00210987
6.82002e-05
1.75859e-05
0.000352735
5.47895e-05
2.18942e-05
2.47373e-05
4.35576e-05
1.68657e-05
5.8938e-05
6.57628e-05
3.64594e-05
5.00939e-05
2.89149e-05
4.04284e-05
2.15904e-05
3.67615e-05
2.92261e-05
2.98318e-05
3.21609e-05
3.04508e-05
3.42301e-05
2.94696e-05
3.91474e-05
2.46821e-05
3.67162e-05
2.69739e-05
2.912e-05
2.07976e-05
2.08229e-05
1.31618e-05
1.36232e-05
1.20426e-05
2.81808e-05
1.29115e-05
2.38869e-05
1.41528e-05
2.87488e-05
1.04467e-05
2.96415e-05
1.09831e-05
1.76193e-05
1.03933e-05
1.51418e-05
8.2132e-06
1.59636e-05
1.15284e-05
1.75725e-05
1.63331e-05
1.98437e-05
2.81995e-05
2.97713e-05
3.80177e-05
4.71953e-05
5.5123e-05
7.27532e-05
6.47117e-05
7.79127e-05
9.17418e-05
0.000102892
9.26157e-05
0.000168153
9.16414e-05
0.000160612
0.000272335
0.000595879
0.000159967
0.00199798
1.97849e-05
0.000104659
8.85431e-05
8.52223e-05
5.68974e-05
7.94175e-05
2.758e-05
3.07865e-05
4.22349e-05
3.86256e-05
2.08468e-05
4.14836e-05
2.19529e-05
4.64719e-05
1.86511e-05
4.56936e-05
2.30733e-05
3.58838e-05
2.15997e-05
3.6175e-05
2.11522e-05
4.28422e-05
1.987e-05
4.78418e-05
2.7207e-05
4.2716e-05
2.30554e-05
3.60858e-05
1.89365e-05
2.32223e-05
1.37805e-05
1.74575e-05
1.27414e-05
2.26803e-05
1.3927e-05
2.29444e-05
1.76692e-05
3.48942e-05
1.50424e-05
3.58263e-05
1.52423e-05
2.99207e-05
1.0562e-05
1.8558e-05
9.45973e-06
1.56689e-05
1.19545e-05
1.38939e-05
1.77286e-05
1.85459e-05
2.84311e-05
2.01915e-05
3.75047e-05
4.10763e-05
4.67414e-05
7.91284e-05
6.67549e-05
7.58941e-05
8.64911e-05
0.000116854
0.000106201
0.000154086
0.000102004
0.000255241
0.000116984
0.000498598
0.000264125
0.00198838
7.01906e-05
1.75124e-05
0.000320427
6.01246e-05
2.0585e-05
2.00253e-05
3.86749e-05
1.66718e-05
5.59526e-05
6.85291e-05
3.55348e-05
4.54517e-05
3.0688e-05
4.04658e-05
2.74227e-05
3.73758e-05
2.38042e-05
2.89971e-05
2.86537e-05
3.01305e-05
2.93814e-05
2.98662e-05
3.53232e-05
2.94324e-05
3.88344e-05
2.51961e-05
3.64307e-05
2.58294e-05
2.96929e-05
2.06243e-05
2.08533e-05
1.23669e-05
1.38372e-05
1.19059e-05
2.78977e-05
1.26984e-05
2.52169e-05
1.37839e-05
2.81225e-05
1.06378e-05
2.90408e-05
1.09117e-05
1.71063e-05
1.03352e-05
1.43796e-05
8.24547e-06
1.62583e-05
1.24132e-05
1.77251e-05
1.75792e-05
2.03923e-05
2.97649e-05
2.86574e-05
3.97802e-05
4.80393e-05
5.6334e-05
7.28894e-05
6.62417e-05
7.81728e-05
9.23491e-05
0.000100528
9.48542e-05
0.000162432
9.46309e-05
0.00015398
0.000279585
0.000587757
0.00016858
0.00187966
1.83081e-05
9.46414e-05
8.6447e-05
9.48568e-05
5.2271e-05
7.04057e-05
2.69553e-05
2.796e-05
4.93015e-05
3.38537e-05
1.57044e-05
4.3304e-05
1.83224e-05
4.22095e-05
2.08047e-05
4.52569e-05
1.95802e-05
3.94403e-05
2.29596e-05
3.27434e-05
2.18447e-05
3.53255e-05
2.07987e-05
4.22483e-05
2.14632e-05
4.78666e-05
2.56999e-05
4.40302e-05
2.37581e-05
3.6335e-05
1.91525e-05
2.36048e-05
1.42684e-05
1.77329e-05
1.29629e-05
2.05344e-05