/*--------------------------------*- C++ -*----------------------------------*\
| =========                 |                                                 |
| \\      /  F ield         | OpenFOAM: The Open Source CFD Toolbox           |
|  \\    /   O peration     | Version:  2206                                  |
|   \\  /    A nd           | Website:  www.openfoam.com                      |
|    \\/     M anipulation  |                                                 |
\*---------------------------------------------------------------------------*/
FoamFile
{
    version     2.0;
    format      ascii;
    arch        "LSB;label=32;scalar=64";
    class       volVectorField;
    location    "170";
    object      U;
}
// * * * * * * * * * * * * * * * * * * * * * * * * * * * * * * * * * * * * * //

dimensions      [0 1 -1 0 0 0 0];

internalField   nonuniform List<vector> 
93840
(
(0.722839 -0.762061 6.48875e-18)
(0.746205 0.381811 7.61711e-18)
(0.648306 -0.788248 5.76857e-18)
(0.604948 -0.332904 3.1612e-19)
(0.70604 0.403302 5.24399e-18)
(0.594337 -0.737183 7.60723e-18)
(1.10658 0.363616 5.55091e-17)
(0.68958 -0.0976654 5.14363e-18)
(0.78064 0.383562 7.24844e-18)
(0.61613 -0.630193 1.34747e-17)
(0.915383 -0.0894631 -9.90603e-18)
(0.977084 0.0575801 1.06121e-16)
(0.775204 -0.0782232 8.63767e-18)
(0.84152 0.341746 -4.45292e-17)
(0.667881 -0.497569 -7.60666e-18)
(0.884784 0.037887 -1.41396e-16)
(0.844964 -0.0222475 -5.02327e-17)
(0.643448 0.0651206 4.75621e-17)
(0.674661 -0.235371 1.38841e-17)
(0.878747 0.220126 -6.33466e-17)
(0.691979 -0.431127 5.93001e-18)
(0.804161 -0.0216837 -3.50006e-17)
(0.927338 0.0536515 -2.22998e-16)
(0.851248 0.00657183 -1.10205e-16)
(0.964107 0.283429 2.43039e-17)
(0.553702 -0.120443 -1.2376e-17)
(0.858017 0.0945863 6.68402e-17)
(0.693569 -0.467 5.00947e-19)
(0.815703 0.0345552 4.24235e-17)
(0.793301 -0.0322775 3.76943e-18)
(0.950444 0.0644903 -2.14118e-16)
(0.888167 -0.0581328 -8.41057e-17)
(0.954525 0.189474 1.60894e-16)
(0.717361 -0.0467748 -1.74263e-18)
(0.938713 0.153899 -3.62344e-17)
(0.675281 -0.500347 -6.7461e-18)
(0.796275 -0.0116016 8.20377e-17)
(0.853806 0.0654323 9.42974e-17)
(0.795311 -0.0116553 6.4755e-17)
(0.849982 0.0650066 -1.67904e-16)
(0.816012 -0.141514 -1.85135e-16)
(0.981511 0.10495 -6.35858e-17)
(0.618528 -0.0248814 -5.14423e-17)
(0.812511 0.163427 5.26848e-17)
(0.6475 -0.4965 1.90054e-18)
(0.818974 0.0260453 -1.74498e-17)
(0.828315 -0.00542643 9.35333e-17)
(0.888854 0.106703 1.75243e-16)
(0.827468 0.0103305 1.45254e-16)
(0.95237 0.169107 1.1418e-16)
(0.72335 -0.024275 -4.4309e-17)
(1.03457 0.0451999 1.22239e-16)
(0.706402 -0.0545675 1.85864e-17)
(0.836547 0.176335 -3.66717e-17)
(0.629867 -0.488258 3.09626e-18)
(0.797365 -0.0149701 1.3538e-16)
(0.862367 0.0433922 -1.36778e-18)
(0.820231 -0.0192406 5.36111e-17)
(0.842902 0.0693591 9.20566e-17)
(0.829944 -0.123674 5.76899e-17)
(1.00886 0.0836475 2.19283e-17)
(0.753864 -0.0437046 -7.69931e-17)
(0.923612 0.0586272 -6.94289e-17)
(0.75775 -0.0716669 -1.45749e-17)
(0.807681 0.217256 4.25602e-17)
(0.624825 -0.473667 8.84125e-19)
(0.832791 0.029569 -8.95097e-17)
(0.804599 -0.0115472 1.46928e-16)
(0.913207 0.0940309 3.2215e-17)
(0.839685 0.00255831 3.42608e-17)
(0.934665 0.157818 2.28985e-17)
(0.721093 -0.049659 -8.34293e-17)
(1.01158 0.0580439 -1.98383e-18)
(0.784917 -0.0248553 -9.14595e-17)
(0.825533 0.086721 9.50428e-17)
(0.745638 -0.119695 4.87669e-18)
(0.848936 0.177504 -3.17787e-17)
(0.619707 -0.466079 3.55956e-18)
(0.785936 -0.0136974 -3.54506e-17)
(0.853889 0.0474648 -1.75394e-16)
(0.820741 0.0160738 9.78095e-17)
(0.854739 0.0714064 2.87361e-17)
(0.827233 -0.0256366 2.97205e-17)
(0.966028 0.0829918 6.76364e-17)
(0.745692 -0.0313238 1.35861e-16)
(0.901417 -0.00707831 6.88533e-17)
(0.812949 -0.057942 -9.52621e-17)
(0.862289 0.132514 -6.91337e-17)
(0.719078 -0.104496 -3.99715e-18)
(0.853101 0.182296 3.31846e-17)
(0.616286 -0.464054 1.35105e-18)
(0.826514 0.0253984 -1.20313e-16)
(0.789426 -0.00641782 -2.96027e-17)
(0.892755 0.0480641 -1.98722e-16)
(0.818277 0.0202832 6.72726e-17)
(0.864005 0.0504496 -2.21024e-17)
(0.756506 -0.0316733 1.91192e-17)
(1.01567 0.0826559 -8.63758e-17)
(0.796204 0.0404604 -3.31769e-17)
(0.888964 0.094794 2.16705e-17)
(0.802506 0.000138583 -9.53503e-17)
(0.865041 0.0924235 1.24783e-16)
(0.722095 -0.0948671 1.7931e-17)
(0.878592 0.17318 -3.10011e-17)
(0.616082 -0.459095 3.21359e-18)
(0.791434 -0.0142952 2.06496e-17)
(0.840307 0.0414828 -1.30159e-16)
(0.786605 0.0372045 7.98309e-17)
(0.839146 0.058671 -1.79657e-16)
(0.81165 0.0285143 -1.10326e-16)
(0.924035 0.0625616 -7.3157e-17)
(0.763039 -0.0123368 -7.60981e-17)
(0.939043 0.0332471 6.2643e-18)
(0.827324 0.0187541 1.75534e-17)
(0.890547 0.045832 1.13069e-16)
(0.803083 -0.0242959 -7.18433e-17)
(0.904595 0.100291 -1.20174e-17)
(0.7156 -0.0984529 3.82874e-18)
(0.87618 0.170873 3.41496e-17)
(0.612677 -0.45839 2.9948e-18)
(0.83512 0.0222082 1.07563e-17)
(0.786844 0.00635143 -4.5538e-17)
(0.867706 0.0307286 -1.63695e-16)
(0.782854 0.015249 4.67767e-17)
(0.840958 0.0332374 -6.53958e-17)
(0.751146 -0.056276 -1.97348e-18)
(0.932567 0.0678818 5.53107e-17)
(0.746135 0.0271044 5.76574e-17)
(0.857081 0.0384637 -4.80994e-17)
(0.856526 -0.00463663 -2.51202e-17)
(0.88202 0.0685708 2.13575e-17)
(0.824394 -0.0155045 -7.37566e-17)
(0.928101 0.117345 3.16869e-17)
(0.691443 -0.106368 7.00104e-19)
(0.884367 0.16372 -2.91188e-17)
(0.611247 -0.453982 3.09649e-18)
(0.795739 -0.0209939 1.03331e-16)
(0.837781 0.030285 1.06784e-16)
(0.788991 0.0475968 -8.12908e-18)
(0.832386 0.0743053 -2.19311e-16)
(0.781061 -0.0181971 -1.206e-17)
(0.897372 0.082898 9.33523e-17)
(0.72751 0.00512015 1.18535e-16)
(0.867312 0.0311471 4.20313e-17)
(0.800281 0.0410884 -8.86768e-17)
(0.85856 0.00986037 -3.21335e-17)
(0.854255 -0.0233706 -3.81405e-17)
(0.895531 0.0561674 6.3477e-17)
(0.787265 -0.0430442 -3.64026e-17)
(0.930473 0.107423 2.91687e-17)
(0.698817 -0.0659423 -1.61432e-17)
(0.885168 0.1562 1.82573e-17)
(0.606415 -0.452954 3.3742e-18)
(0.841775 0.0266713 -6.86923e-17)
(0.793473 -0.0144951 1.44833e-16)
(0.86018 0.0466446 1.709e-16)
(0.790137 -0.0094364 2.39398e-16)
(0.84747 0.0770451 6.32649e-17)
(0.765162 -0.0370238 -1.01996e-16)
(0.889878 0.0538178 -2.53278e-16)
(0.770095 0.0348913 -1.33819e-16)
(0.86357 0.0463914 5.92385e-17)
(0.766029 0.0380734 7.36549e-17)
(0.859928 0.0394545 -2.43508e-17)
(0.846422 -0.0252451 -5.78417e-17)
(0.905389 0.0546115 7.99123e-17)
(0.794036 -0.0332866 -8.24275e-17)
(0.949448 0.106958 2.31781e-17)
(0.687413 -0.0520472 1.85609e-17)
(0.889292 0.132958 -2.33799e-17)
(0.601718 -0.449689 1.51174e-18)
(0.807324 -0.0156903 2.12619e-17)
(0.843262 0.04243 -6.96276e-17)
(0.804139 0.0102963 9.30676e-17)
(0.859622 0.0858998 1.11463e-16)
(0.802829 -0.00958132 1.16163e-16)
(0.889142 0.0737203 -1.63194e-17)
(0.759461 0.003408 2.73312e-17)
(0.850316 0.0508129 2.71581e-17)
(0.7576 0.00802039 1.5058e-16)
(0.856814 0.0284816 1.02321e-16)
(0.807531 -0.00199022 -6.94511e-17)
(0.880737 0.03409 -3.35664e-17)
(0.832929 -0.0134408 -4.15466e-17)
(0.91174 0.0623241 1.18429e-16)
(0.784811 -0.0533031 -7.4131e-17)
(0.939242 0.074145 2.11333e-17)
(0.688221 -0.0347912 -3.97212e-18)
(0.8707 0.120779 1.2315e-17)
(0.594778 -0.449887 1.94893e-18)
(0.845701 0.0266882 -2.62119e-17)
(0.800351 -0.0126829 3.4458e-17)
(0.865129 0.0558943 -5.36555e-17)
(0.798479 -0.00326177 3.99055e-17)
(0.843898 0.0731222 -4.31084e-17)
(0.789236 -0.00736697 -7.10068e-17)
(0.890631 0.0565692 8.68468e-17)
(0.78564 0.010846 -3.75475e-17)
(0.867697 0.0526952 -2.41101e-16)
(0.769504 0.0287259 -2.1514e-16)
(0.863492 0.038728 2.43664e-17)
(0.766554 0.0228873 1.01682e-16)
(0.885289 0.0483158 -3.55386e-17)
(0.834793 -0.00287868 -3.47642e-17)
(0.91307 0.0723647 8.21067e-17)
(0.794758 -0.0351567 -6.95937e-17)
(0.968291 0.0562936 2.34406e-17)
(0.699377 -0.0153593 2.07644e-17)
(0.875431 0.115637 -1.14031e-17)
(0.588911 -0.4475 1.39518e-19)
(0.809853 -0.0107981 -1.28293e-16)
(0.848217 0.0446092 -9.52048e-17)
(0.810388 -0.00290908 3.00525e-17)
(0.868834 0.0756723 -7.12728e-17)
(0.806867 0.0137682 -1.22528e-18)
(0.885032 0.0575846 1.33501e-16)
(0.775035 -0.00466538 3.08257e-16)
(0.868715 0.0486566 2.33972e-16)
(0.763403 0.0208371 3.91658e-17)
(0.867592 0.04926 -2.74106e-17)
(0.769729 0.00290438 1.22677e-16)
(0.848319 0.0312335 9.30879e-17)
(0.807725 0.007509 -5.43198e-17)
(0.886589 0.0398997 -1.60004e-17)
(0.828583 -0.0155179 -5.65034e-17)
(0.928265 0.021033 1.03909e-16)
(0.785578 -0.0312245 -5.82002e-17)
(0.939484 0.0345376 1.55513e-17)
(0.717143 -0.0114061 -1.82964e-17)
(0.855976 0.13319 3.18144e-18)
(0.584359 -0.444745 3.009e-18)
(0.849072 0.0222378 3.41582e-16)
(0.810081 0.00309286 -1.07561e-16)
(0.861932 0.0734269 -1.60669e-16)
(0.812572 0.0319063 -1.21804e-16)
(0.850259 0.0638818 -8.99209e-17)
(0.807949 -0.0126197 -5.68237e-17)
(0.88969 0.060649 -6.51914e-17)
(0.805178 0.00258219 -1.63243e-16)
(0.873442 0.0656468 2.36245e-17)
(0.788844 0.00716684 1.02276e-17)
(0.864549 0.0462006 -2.16759e-16)
(0.775326 0.0273325 -1.97619e-16)
(0.860751 0.045858 -5.38204e-18)
(0.766255 0.0242734 7.65672e-17)
(0.880231 0.0495651 -3.05751e-17)
(0.82765 -0.0196255 -6.15081e-17)
(0.920066 0.0694757 5.08092e-18)
(0.782763 -0.0178464 -7.68411e-17)
(0.927142 0.0270347 -1.34903e-18)
(0.725598 -0.00531392 -7.54908e-18)
(0.868733 0.125837 -1.29204e-17)
(0.580147 -0.442024 5.297e-19)
(0.808459 -0.012045 -3.32427e-16)
(0.853183 0.0390039 2.39147e-16)
(0.826468 0.0146712 -1.35776e-16)
(0.879074 0.0539929 -1.193e-16)
(0.820298 0.011615 9.73404e-18)
(0.892009 0.057481 -3.97483e-17)
(0.788399 0.00563364 -1.24213e-16)
(0.877163 0.0507299 -1.51779e-16)
(0.780051 0.000132461 1.65753e-16)
(0.869543 0.0430545 2.39785e-16)
(0.763724 0.0212103 7.00033e-17)
(0.852574 0.0440148 8.3668e-17)
(0.781683 0.0144938 2.901e-17)
(0.844746 0.0217753 8.04428e-17)
(0.800696 0.0135136 -6.35911e-17)
(0.891849 0.0470199 -2.71868e-17)
(0.837236 -0.00606111 -6.83633e-17)
(0.926556 0.0296277 1.2622e-16)
(0.787576 -0.0163476 -6.82004e-17)
(0.896818 0.0423008 2.32793e-17)
(0.736448 -0.0055036 -1.70453e-17)
(0.849089 0.131486 -4.92209e-20)
(0.576681 -0.438607 1.6636e-18)
(0.852795 0.0210132 -3.72816e-17)
(0.818958 0.00514825 -3.46671e-16)
(0.86841 0.0381405 2.61368e-16)
(0.825746 0.038183 8.68864e-17)
(0.865606 0.0432453 5.00379e-17)
(0.817882 -0.0473791 4.27535e-17)
(0.889264 0.0534504 -1.12009e-16)
(0.824998 -0.00556963 -4.71474e-17)
(0.890885 0.05927 -1.56893e-17)
(0.792585 0.018606 -2.12874e-16)
(0.867481 0.0640687 -2.86363e-17)
(0.787007 0.017649 6.40823e-17)
(0.858436 0.0468281 -1.74847e-16)
(0.786599 0.0227653 -1.33327e-16)
(0.856622 0.0390774 -3.42883e-17)
(0.767385 0.0333096 1.18628e-16)
(0.868329 0.0430994 4.95618e-19)
(0.843564 -0.000362925 -6.30593e-17)
(0.935165 0.0324522 5.75204e-17)
(0.796269 -0.00755656 -6.48349e-17)
(0.877968 0.0479882 2.29063e-17)
(0.744755 -0.00486994 4.0017e-17)
(0.865589 0.126278 -4.71796e-18)
(0.573359 -0.435907 3.78708e-18)
(0.810666 -0.0181282 4.9286e-17)
(0.860759 0.0221402 4.40778e-17)
(0.836391 0.0470722 -2.35709e-16)
(0.88786 0.0450549 1.98226e-16)
(0.834499 0.0312087 8.0749e-17)
(0.896669 0.0860444 -1.7298e-17)
(0.812834 0.0355943 -1.63626e-16)
(0.880653 0.0672507 -7.42894e-17)
(0.809376 0.00953731 -1.05821e-16)
(0.860077 0.0552921 -1.87452e-16)
(0.782935 0.00723586 7.38254e-17)
(0.842961 0.0323325 2.3842e-16)
(0.790462 0.0190116 9.51372e-17)
(0.863168 0.0454826 -7.46778e-17)
(0.770905 0.0210041 7.77274e-17)
(0.860945 0.0214667 9.05587e-17)
(0.7936 0.0213333 3.57947e-17)
(0.880667 0.0457904 -6.56692e-17)
(0.832511 -0.0028809 -7.01006e-17)
(0.933275 0.0399021 7.40749e-17)
(0.810678 -0.00545502 -6.53986e-17)
(0.874565 0.0303654 2.95305e-17)
(0.753892 -0.00355753 -1.23179e-17)
(0.844871 0.136382 -8.51883e-18)
(0.571572 -0.432663 -1.56838e-18)
(0.851851 0.0311758 1.291e-16)
(0.819462 -0.00546148 9.4845e-17)
(0.873014 0.0408749 1.12346e-16)
(0.835811 -0.00851375 -3.22728e-16)
(0.879187 0.0379483 -1.21149e-16)
(0.831051 -0.0453457 -8.24373e-17)
(0.893852 0.056267 -4.56272e-17)
(0.831319 -0.0188104 7.47224e-17)
(0.894806 0.0473841 -3.14007e-17)
(0.824226 0.0105506 -2.04512e-17)
(0.881389 0.0551793 -3.43148e-17)
(0.786531 0.0283674 -1.66641e-16)
(0.865705 0.0606523 6.4377e-18)
(0.78615 0.0145543 8.73013e-17)
(0.8675 0.0420104 -6.83346e-17)
(0.778781 0.023113 -2.70413e-16)
(0.840758 0.0386222 1.50683e-17)
(0.793672 0.0212234 3.46592e-17)
(0.882084 0.0455443 -2.08855e-17)
(0.831346 0.0054902 -7.00243e-17)
(0.889548 0.0603842 6.18391e-17)
(0.814317 0.000161142 -6.77332e-17)
(0.871608 0.051073 -2.39121e-17)
(0.762871 -0.00687431 2.33387e-17)
(0.865625 0.131179 -4.42098e-18)
(0.56872 -0.430944 1.77601e-18)
(0.808359 -0.0136762 2.22212e-16)
(0.853733 0.0459164 1.59865e-16)
(0.833652 0.0306684 4.65646e-17)
(0.884989 0.0799063 1.88852e-16)
(0.828694 0.0151674 -1.17184e-16)
(0.893938 0.0864431 -6.24257e-17)
(0.820156 0.0299416 8.59953e-17)
(0.869408 0.0635395 3.1653e-16)
(0.829002 0.0348043 1.39337e-17)
(0.873129 0.0667342 -3.26804e-17)
(0.804159 0.0174185 -1.08211e-16)
(0.860881 0.0556901 -2.26681e-16)
(0.781189 0.0111602 8.6395e-17)
(0.861006 0.0473243 1.94519e-16)
(0.777184 0.0215131 1.39039e-16)
(0.861559 0.0442077 -1.04933e-16)
(0.779774 0.0224035 5.44611e-17)
(0.839447 0.0227808 1.02747e-16)
(0.79708 0.0206786 4.13757e-17)
(0.897507 0.0468435 -5.34589e-18)
(0.83295 0.00341168 -7.87601e-17)
(0.900785 0.0367052 9.46514e-17)
(0.815054 0.00520413 -5.7466e-17)
(0.881929 0.0387523 2.59576e-17)
(0.771255 -0.0105686 -1.02761e-17)
(0.843872 0.139541 -1.29694e-17)
(0.567141 -0.428152 -8.49757e-19)
(0.842202 0.0316641 -5.53128e-16)
(0.812871 -0.0157833 1.48192e-16)
(0.870669 0.0231604 2.09285e-16)
(0.830615 0.024736 -5.9987e-17)
(0.872019 0.0527105 2.28587e-16)
(0.835767 -0.00428746 3.12636e-16)
(0.877389 0.0617873 3.79762e-16)
(0.831935 -0.000302666 1.87071e-16)
(0.885238 0.0602712 3.42233e-17)
(0.84145 -0.00848596 1.27022e-16)
(0.891128 0.0443087 -1.33447e-17)
(0.823342 0.0143392 -2.52834e-17)
(0.877486 0.0538712 4.86131e-17)
(0.789728 0.0297376 -1.42015e-16)
(0.876949 0.0632404 7.04461e-18)
(0.787191 0.0191764 2.59419e-17)
(0.864662 0.0451747 -8.83791e-17)
(0.776715 0.0196585 -2.3721e-16)
(0.848645 0.0340468 1.74492e-17)
(0.783908 0.0184765 3.40167e-17)
(0.877395 0.0514339 1.781e-17)
(0.838128 0.000927928 -8.54402e-17)
(0.900382 0.0519201 6.98524e-17)
(0.818335 0.00410416 -5.24655e-17)
(0.881619 0.0383479 -6.05198e-18)
(0.775674 -0.0181309 2.34966e-17)
(0.85587 0.131514 -3.63633e-18)
(0.563884 -0.426964 6.39235e-20)
(0.798004 0.00175131 4.3579e-16)
(0.843786 0.0470294 -5.14864e-16)
(0.830077 -0.0019453 1.09515e-16)
(0.873395 0.0584158 2.44912e-16)
(0.828524 -0.0204937 -6.04344e-17)
(0.88225 0.0776349 -1.43354e-16)
(0.816713 0.0140298 -2.43713e-16)
(0.852316 0.0568459 -4.61463e-16)
(0.828241 0.0293914 -1.4744e-16)
(0.87033 0.0578821 2.7857e-16)
(0.824161 0.0403833 5.64145e-17)
(0.868006 0.0648914 -1.98453e-17)
(0.809123 0.0238161 -7.57171e-17)
(0.859072 0.0524136 -2.26351e-16)
(0.781533 0.0108322 7.41502e-17)
(0.849103 0.0446068 2.58507e-16)
(0.777947 0.0166538 1.95471e-16)
(0.870334 0.0445967 -4.98373e-17)
(0.778581 0.0200715 1.45588e-16)
(0.85169 0.0376099 -4.67753e-18)
(0.787667 0.0199816 2.05936e-17)
(0.860265 0.053226 -6.05761e-18)
(0.834985 0.0065756 -8.12183e-17)
(0.905721 0.0510885 7.41345e-17)
(0.805856 0.0093529 -4.89123e-17)
(0.872536 0.0439983 1.31907e-17)
(0.779176 -0.0249825 8.77775e-18)
(0.840815 0.139739 -2.74129e-17)
(0.561302 -0.422595 -1.10167e-18)
(0.829803 0.0161461 1.39973e-17)
(0.799739 0.0204009 4.11204e-16)
(0.867822 0.0560186 -6.23828e-16)
(0.826779 0.0124144 -1.20495e-16)
(0.867312 0.0740646 1.51666e-16)
(0.826199 0.0157233 2.35338e-16)
(0.858009 0.0575909 1.25535e-16)
(0.828423 0.0254922 1.16356e-16)
(0.864004 0.0659225 3.86758e-16)
(0.832117 0.0147552 2.65008e-16)
(0.873249 0.0616096 -7.93364e-18)
(0.829499 0.000419015 6.99592e-17)
(0.88211 0.0520381 5.27055e-18)
(0.809084 0.0189039 -2.93192e-17)
(0.88075 0.0526132 -1.38833e-17)
(0.78767 0.0362091 -1.84596e-16)
(0.877298 0.0613588 -4.51546e-17)
(0.788318 0.0227426 8.03576e-17)
(0.869728 0.0445726 -4.07383e-17)
(0.773896 0.0227195 -2.13878e-16)
(0.850276 0.0363188 -1.62524e-17)
(0.794528 0.0188571 1.67424e-17)
(0.866873 0.0534181 1.6457e-17)
(0.838736 0.00628634 -7.52158e-17)
(0.910796 0.0534872 7.39556e-17)
(0.812319 0.00993059 -5.07589e-17)
(0.853124 0.0378805 6.95675e-18)
(0.781379 -0.0295066 1.8348e-17)
(0.836204 0.13463 -3.79894e-18)
(0.559682 -0.418275 -7.12e-19)
(0.784634 -0.00642172 -2.97873e-16)
(0.824399 0.0174136 4.68136e-17)
(0.817063 -0.00487356 3.23741e-16)
(0.867843 0.0707543 -6.13444e-16)
(0.832904 -0.000295001 -4.68457e-16)
(0.862712 0.0674854 -4.46185e-16)
(0.819775 0.0244553 -4.05443e-16)
(0.835763 0.0652456 -3.56415e-16)
(0.819835 0.0269433 -2.21044e-16)
(0.838828 0.0553985 -4.80092e-16)
(0.824489 0.0384202 -3.06697e-16)
(0.862506 0.0535744 3.38689e-16)
(0.819436 0.0386138 7.9829e-17)
(0.8608 0.0650209 1.09951e-17)
(0.8026 0.0312507 -2.45101e-17)
(0.84568 0.0515464 -2.67729e-16)
(0.782437 0.0120041 3.67828e-17)
(0.852865 0.0417472 1.64467e-16)
(0.77169 0.0193224 1.81118e-16)
(0.863753 0.0422157 -4.50102e-17)
(0.77478 0.0199733 1.20382e-16)
(0.833717 0.0372688 1.72158e-17)
(0.798153 0.01793 7.14165e-18)
(0.867211 0.0544358 5.65148e-18)
(0.833287 0.0146286 -8.05001e-17)
(0.90903 0.050716 6.49522e-17)
(0.817739 0.00478904 -5.38536e-17)
(0.841174 0.0468972 1.45033e-17)
(0.779959 -0.031182 1.71494e-17)
(0.869359 0.123505 -2.25463e-17)
(0.558097 -0.416557 -6.06119e-19)
(0.823658 0.0130194 4.70144e-16)
(0.778791 0.0229412 -4.12686e-16)
(0.855463 0.0516204 1.08042e-17)
(0.820359 0.0207508 7.25487e-16)
(0.861382 0.0562716 1.63908e-16)
(0.821388 -0.00888206 -9.37934e-17)
(0.843075 0.0457536 -8.0935e-17)
(0.824794 0.0232376 1.92301e-16)
(0.837251 0.0498293 2.63665e-16)
(0.831197 0.027991 6.86153e-17)
(0.851819 0.0586667 3.01184e-16)
(0.831823 0.0181091 1.02785e-16)
(0.864982 0.0588096 -6.06455e-17)
(0.826047 0.0111787 1.14546e-16)
(0.876575 0.0508879 2.19625e-17)
(0.809689 0.0252413 -2.051e-17)
(0.881638 0.0534148 2.98732e-17)
(0.78733 0.0405122 -1.3411e-16)
(0.870381 0.0623618 -9.94346e-17)
(0.780603 0.0225815 1.05232e-16)
(0.858632 0.0527458 -9.15707e-17)
(0.771505 0.020005 -2.45367e-16)
(0.829289 0.0440546 -1.88633e-17)
(0.78456 0.0229849 -1.00037e-18)
(0.870227 0.0555194 2.0399e-18)
(0.826558 0.0217679 -8.27692e-17)
(0.902207 0.0553724 5.08882e-17)
(0.820391 0.002956 -5.64922e-17)
(0.839329 0.0520506 1.77636e-17)
(0.761212 -0.026875 1.81274e-17)
(0.873292 0.122839 -7.71115e-18)
(0.557718 -0.413307 1.57558e-19)
(0.78403 -0.0198021 -3.45548e-16)
(0.805549 0.0202684 4.74243e-16)
(0.814184 0.0269865 -3.39564e-16)
(0.856426 0.0430714 -2.80752e-16)
(0.832885 0.0378264 5.88974e-16)
(0.846674 0.0844581 5.27282e-16)
(0.815843 0.0482843 5.57688e-16)
(0.817563 0.0668556 3.75323e-16)
(0.820202 0.035674 -1.18428e-16)
(0.831173 0.0572338 -3.36331e-16)
(0.817651 0.0264395 -2.93955e-16)
(0.837967 0.0490218 -4.0914e-16)
(0.820449 0.0393944 -3.45547e-16)
(0.853807 0.0506507 2.36089e-16)
(0.815265 0.0531996 1.03106e-16)
(0.86117 0.0638056 5.47171e-17)
(0.800529 0.0335498 -9.33862e-17)
(0.838685 0.0508974 -2.73973e-16)
(0.783209 0.0132628 -4.26672e-18)
(0.845364 0.0428015 2.15667e-16)
(0.771287 0.0206012 1.92021e-16)
(0.85185 0.0368893 2.16097e-17)
(0.77977 0.0201273 3.82942e-17)
(0.829745 0.0379063 1.32887e-16)
(0.793626 0.0223537 1.97469e-17)
(0.87261 0.0541691 -7.67214e-18)
(0.821001 0.0150793 -9.27803e-17)
(0.892893 0.0601658 6.32733e-17)
(0.825899 0.00233774 -7.71734e-17)
(0.855284 0.0440912 2.11918e-17)
(0.767536 -0.0223784 1.64508e-17)
(0.861099 0.128684 -2.40828e-17)
(0.557212 -0.409518 -5.1506e-18)
(0.823478 0.0240886 -7.76233e-17)
(0.763457 -0.000120924 -1.54012e-16)
(0.847792 0.0405502 4.51193e-16)
(0.822022 0.0409897 -9.37702e-17)
(0.862976 0.0387091 -6.95329e-16)
(0.821901 -0.0192095 -4.77389e-16)
(0.822154 0.0409456 -2.44982e-16)
(0.820378 0.0194835 -4.58168e-16)
(0.816349 0.0348794 -4.39965e-16)
(0.831172 0.0347059 2.5255e-17)
(0.822057 0.0435012 2.44884e-16)
(0.828913 0.034002 9.01573e-17)
(0.840927 0.0559576 3.46548e-16)
(0.821003 0.027868 3.17521e-16)
(0.862836 0.0590965 -2.42239e-17)
(0.828436 0.0167279 1.09302e-16)
(0.874248 0.051378 6.73892e-17)
(0.813898 0.0294549 -2.09738e-17)
(0.872295 0.0519513 9.28894e-17)
(0.786728 0.0399194 -1.96406e-16)
(0.867517 0.0579446 -3.97259e-17)
(0.784384 0.0307065 9.23835e-17)
(0.849955 0.0532792 -6.59553e-17)
(0.773903 0.0242774 -1.0471e-16)
(0.825459 0.0443687 -3.01859e-17)
(0.792095 0.0214229 4.10102e-17)
(0.872984 0.052336 -1.07084e-17)
(0.822464 0.0252229 -8.65199e-17)
(0.881684 0.0647893 8.40876e-17)
(0.825399 0.00598356 -7.93608e-17)
(0.844475 0.0408323 2.09908e-17)
(0.775175 -0.0249661 2.00967e-17)
(0.85866 0.126786 -1.25084e-17)
(0.556136 -0.405508 6.57924e-18)
(0.77933 -0.0216366 -6.49383e-17)
(0.798845 0.0375526 -1.10834e-16)
(0.806488 0.0302668 -2.09109e-16)
(0.847862 0.03308 4.64202e-16)
(0.830258 0.0376249 5.23599e-16)
(0.84317 0.080041 2.15189e-16)
(0.803305 0.0557207 4.09963e-17)
(0.810224 0.0515299 1.06672e-16)
(0.818345 0.0471815 5.38938e-16)
(0.808707 0.0625784 5.6752e-16)
(0.816229 0.0450488 -2.16852e-17)
(0.814386 0.0542378 -3.26338e-16)
(0.817295 0.0320871 -2.55674e-16)
(0.826848 0.0428081 -5.03202e-16)
(0.823921 0.033834 -2.63618e-17)
(0.845092 0.0466447 1.50141e-16)
(0.819885 0.0422772 1.23092e-16)
(0.851734 0.0621854 -2.09794e-17)
(0.801706 0.0353278 -1.32762e-18)
(0.837379 0.0486637 -2.96127e-16)
(0.783601 0.017387 2.43863e-17)
(0.842848 0.0440453 2.39874e-16)
(0.772541 0.018835 1.90363e-16)
(0.849908 0.0388357 7.3826e-17)
(0.784797 0.0217077 -9.37035e-17)
(0.83458 0.0436409 6.28208e-17)
(0.789222 0.022252 4.64355e-17)
(0.88254 0.0521693 -3.27395e-18)
(0.826984 0.0191677 -8.31656e-17)
(0.878733 0.0591181 6.48004e-17)
(0.83268 0.00356444 -6.55816e-17)
(0.844289 0.0417809 1.69213e-17)
(0.781521 -0.0293733 8.908e-18)
(0.844888 0.135667 -2.26212e-17)
(0.556111 -0.401014 -2.18786e-18)
(0.818202 0.0278701 1.62499e-16)
(0.758353 0.000832889 -1.35765e-16)
(0.842626 0.0434968 3.53293e-17)
(0.823784 0.0187888 -5.5735e-16)
(0.86521 0.0392019 -3.49867e-17)
(0.81908 0.00195978 3.58324e-16)
(0.805408 0.0504953 1.64452e-16)
(0.82085 0.0200106 1.88574e-16)
(0.802411 0.0331202 1.14533e-16)
(0.823117 0.0286706 -4.23597e-16)
(0.809598 0.0277976 -4.61771e-16)
(0.828487 0.0327102 1.80181e-17)
(0.815289 0.043816 3.55037e-16)
(0.826808 0.0367479 1.68099e-16)
(0.835084 0.0495888 1.24072e-16)
(0.825958 0.0338907 -2.593e-17)
(0.860012 0.0614841 9.6816e-18)
(0.832227 0.0337881 9.27106e-17)
(0.872277 0.0498008 9.96177e-18)
(0.814241 0.0306156 -5.82322e-17)
(0.869736 0.0509922 3.97733e-17)
(0.788218 0.0406504 -1.56929e-16)
(0.857383 0.0555025 -6.87868e-17)
(0.785554 0.025727 1.37488e-16)
(0.846884 0.055319 -1.20862e-16)
(0.780459 0.0237029 -1.48541e-16)
(0.830197 0.0451765 1.98108e-17)
(0.779217 0.0259038 1.61786e-17)
(0.864894 0.0534759 1.14945e-17)
(0.833649 0.0163194 -8.13762e-17)
(0.881775 0.0654628 8.11301e-17)
(0.827182 0.00427533 -5.03742e-17)
(0.852648 0.0419374 2.20848e-17)
(0.786918 -0.0339576 2.53296e-17)
(0.842544 0.134877 -1.40368e-17)
(0.554493 -0.397023 1.13911e-17)
(0.779437 -0.0193088 8.19526e-17)
(0.785654 0.037017 1.44074e-16)
(0.799082 0.0226593 -4.93681e-17)
(0.853705 0.0466026 1.58943e-16)
(0.824459 0.0152293 -5.24491e-16)
(0.844577 0.0672059 -4.41803e-16)
(0.806903 0.0432401 -1.54078e-16)
(0.817175 0.0345134 -6.79286e-17)
(0.820533 0.0388203 -2.5762e-16)
(0.801884 0.0471679 -5.18361e-17)
(0.816221 0.0420484 5.4067e-16)
(0.808049 0.0555483 5.78311e-16)
(0.81346 0.043488 4.2574e-17)
(0.81525 0.0476467 -2.12262e-16)
(0.822908 0.0335163 -3.14616e-16)
(0.821825 0.0408124 -6.5387e-16)
(0.826355 0.0361425 -9.64798e-17)
(0.844625 0.0439589 2.74094e-16)
(0.821313 0.0404015 6.96731e-17)
(0.847472 0.0596293 2.05518e-17)
(0.802306 0.0363048 -2.09941e-17)
(0.835414 0.0436779 -2.99084e-16)
(0.788633 0.0306798 -1.07151e-16)
(0.835913 0.0437717 2.11195e-16)
(0.777763 0.021688 1.89946e-16)
(0.85052 0.0393228 2.74029e-17)
(0.782577 0.0212121 -7.50916e-17)
(0.837408 0.044592 5.85434e-17)
(0.780623 0.025879 2.66497e-17)
(0.847099 0.055817 1.80474e-17)
(0.836593 0.0163221 -8.23066e-17)
(0.884652 0.0648415 8.34933e-17)
(0.832866 0.00188384 -6.4516e-17)
(0.848111 0.0443561 2.39903e-17)
(0.789331 -0.0386384 1.79119e-17)
(0.839637 0.13524 -2.72564e-17)
(0.554135 -0.391889 -2.5738e-18)
(0.822295 0.0301625 1.15875e-16)
(0.754688 0.00122483 3.00474e-17)
(0.829564 0.040906 -7.01061e-17)
(0.823 0.00620303 -1.76688e-17)
(0.862924 0.0476262 5.49686e-16)
(0.83151 0.0282088 2.2426e-16)
(0.805942 0.0517173 -1.0966e-16)
(0.838057 0.0299809 -1.7248e-16)
(0.806853 0.0360305 -4.74865e-17)
(0.815464 0.0237634 2.12929e-16)
(0.807572 0.0330331 1.76242e-16)
(0.813751 0.0297306 -4.0916e-16)
(0.810048 0.0293334 -5.23863e-16)
(0.827413 0.0333107 -5.06865e-17)
(0.815611 0.0417646 2.56587e-16)
(0.823079 0.0385494 1.47215e-16)
(0.832296 0.0480543 5.7082e-16)
(0.832011 0.0366479 -1.15532e-16)
(0.859178 0.0588356 5.99631e-17)
(0.829637 0.034344 1.21064e-17)
(0.870467 0.0494129 2.04804e-17)
(0.816169 0.0347941 -4.11904e-17)
(0.853888 0.0507625 2.38423e-17)
(0.792285 0.0312386 -1.14819e-16)
(0.855916 0.0533159 -8.1062e-17)
(0.787498 0.0238322 1.2188e-16)
(0.851332 0.0534107 -9.18644e-17)
(0.774861 0.0240986 -1.28045e-16)
(0.83483 0.0431731 3.78422e-17)
(0.78761 0.0242287 1.83785e-17)
(0.845749 0.0583993 2.02215e-17)
(0.838162 0.0156679 -8.91297e-17)
(0.889933 0.0653947 8.555e-17)
(0.825445 0.00591504 -5.20515e-17)
(0.851221 0.0468695 2.17195e-17)
(0.786571 -0.0401967 2.25697e-17)
(0.84159 0.122695 -1.03986e-17)
(0.552006 -0.387434 6.34142e-19)
(0.789216 -0.00863679 -1.6612e-16)
(0.796537 0.0394704 1.22542e-16)
(0.804674 0.0123857 -1.60217e-17)
(0.857654 0.0523499 6.0584e-17)
(0.821607 0.0019993 -7.2545e-17)
(0.852303 0.0603774 2.25005e-16)
(0.819112 0.0334667 2.05621e-16)
(0.832158 0.0248994 1.43118e-16)
(0.828849 0.030223 1.12652e-16)
(0.814562 0.0278526 -1.66187e-17)
(0.824471 0.0437126 -2.34151e-16)
(0.793833 0.0408408 -2.36865e-16)
(0.814283 0.0410271 3.43093e-16)
(0.801818 0.0508911 6.3824e-16)
(0.813023 0.0387943 1.8232e-16)
(0.810117 0.045615 -2.2296e-16)
(0.819741 0.0347224 -2.90359e-16)
(0.825805 0.0397086 -4.75596e-16)
(0.826519 0.0400908 -1.42964e-16)
(0.847279 0.0434396 2.07602e-16)
(0.826114 0.0467275 7.66741e-17)
(0.843077 0.0608478 5.83448e-17)
(0.80353 0.036801 -5.26039e-18)
(0.833999 0.0448997 -2.73662e-16)
(0.795467 0.0305249 -1.31901e-16)
(0.833891 0.0429629 1.69027e-16)
(0.779301 0.0275369 1.92941e-16)
(0.840171 0.0414511 4.22049e-17)
(0.773842 0.0229395 -1.60814e-16)
(0.826761 0.0456469 -2.26298e-17)
(0.794423 0.021336 8.64915e-18)
(0.84753 0.0532681 1.36013e-18)
(0.839985 0.0116392 -1.09658e-16)
(0.894461 0.0649124 7.93337e-17)
(0.826603 0.00355669 -3.68936e-17)
(0.852924 0.0525054 9.84351e-18)
(0.775905 -0.0348572 2.76988e-17)
(0.844387 0.121153 -2.59758e-17)
(0.552257 -0.382397 4.66571e-18)
(0.832237 0.0304816 -4.50598e-17)
(0.770211 0.00988306 -5.6947e-17)
(0.832412 0.0326359 3.3105e-16)
(0.819946 0.00558302 1.62723e-16)
(0.86015 0.061652 5.68746e-17)
(0.847106 0.041255 -3.89542e-16)
(0.814112 0.048859 -3.26957e-16)
(0.864102 0.0377891 -1.51486e-16)
(0.820777 0.0439485 -2.5708e-16)
(0.840229 0.0369153 -3.48855e-16)
(0.804824 0.0386958 -1.34892e-16)
(0.811775 0.0295165 2.00212e-16)
(0.804062 0.0344918 2.32092e-16)
(0.813744 0.0325956 -1.64764e-16)
(0.811023 0.0299048 -5.6554e-16)
(0.823618 0.0373171 -2.86378e-16)
(0.814388 0.0385604 1.56099e-16)
(0.825601 0.0356141 2.68856e-17)
(0.836622 0.0473358 2.81602e-16)
(0.829705 0.0344661 -4.67885e-17)
(0.856329 0.0550548 -1.2968e-16)
(0.830696 0.0319552 5.79935e-17)
(0.861718 0.0475843 6.79101e-17)
(0.817325 0.0351176 -7.63907e-17)
(0.85375 0.0527909 -1.98017e-17)
(0.79616 0.0343797 -1.1326e-16)
(0.846553 0.0507684 -1.17163e-16)
(0.787455 0.0212785 1.31162e-16)
(0.842469 0.0528136 -2.53208e-17)
(0.772019 0.0269012 -1.06671e-16)
(0.823277 0.0494886 -1.93875e-17)
(0.770468 0.0251897 8.92832e-19)
(0.85073 0.0558458 8.59976e-18)
(0.825666 0.0104706 -9.81697e-17)
(0.898425 0.0648342 7.79292e-17)
(0.817336 0.00407891 -5.27833e-17)
(0.855426 0.0480119 1.52946e-17)
(0.774329 -0.0351139 1.73008e-17)
(0.850783 0.116259 -1.77311e-17)
(0.55102 -0.378184 -1.17763e-17)
(0.803172 0.000873023 -3.51637e-16)
(0.814617 0.038627 -6.63651e-18)
(0.804329 -0.0107941 -1.71952e-17)
(0.858123 0.0460391 2.07507e-16)
(0.828984 0.00199226 -5.81877e-17)
(0.862447 0.0462833 -6.56521e-17)
(0.838753 0.0322574 -7.64461e-17)
(0.849465 0.0238446 -1.10262e-16)
(0.837651 0.0283869 -2.14182e-17)
(0.825646 0.0216033 6.21513e-17)
(0.830037 0.0324121 2.12931e-16)
(0.81261 0.0307804 1.05434e-17)
(0.820072 0.0422376 -2.89836e-16)
(0.79202 0.0361683 -2.03872e-16)
(0.809323 0.0428721 4.65665e-16)
(0.798554 0.0508448 6.95161e-16)
(0.809156 0.0381317 1.19496e-16)
(0.808119 0.0489611 -2.63036e-16)
(0.819653 0.0393995 -2.04282e-16)
(0.82664 0.0382579 -2.33449e-16)
(0.831632 0.0384252 -1.0563e-16)
(0.842246 0.0403406 2.65767e-16)
(0.829554 0.0498466 1.38103e-16)
(0.84177 0.0598069 -2.97597e-17)
(0.803479 0.0376812 5.7028e-18)
(0.829864 0.0446928 -2.81255e-16)
(0.792845 0.0332688 -1.16187e-16)
(0.827381 0.0430176 1.69371e-16)
(0.782517 0.0321652 1.94926e-16)
(0.833761 0.0415172 1.09846e-16)
(0.775947 0.0261033 -8.79604e-17)
(0.831051 0.0451565 -9.41471e-18)
(0.787808 0.0230955 8.36919e-18)
(0.854203 0.0560097 9.31796e-18)
(0.83207 0.00744686 -1.01784e-16)
(0.90262 0.0647418 9.04915e-17)
(0.814678 -0.00215633 -6.17151e-17)
(0.858614 0.0487595 -3.72036e-18)
(0.770753 -0.036172 2.79203e-17)
(0.855095 0.110346 -2.32483e-17)
(0.551819 -0.373571 7.2047e-18)
(0.844616 0.0249596 2.12008e-16)
(0.788743 0.0122185 -4.61007e-16)
(0.842726 0.0535351 -4.29063e-18)
(0.827003 0.0183427 -2.18247e-16)
(0.863006 0.0713405 -1.58619e-16)
(0.865075 0.0454858 -1.72153e-16)
(0.825861 0.0441538 1.89886e-16)
(0.866401 0.041783 3.70995e-16)
(0.823538 0.0424079 3.32971e-16)
(0.868629 0.0468417 -7.54524e-18)
(0.813037 0.0449528 -1.92334e-16)
(0.838558 0.0379153 -3.35629e-16)