/*--------------------------------*- C++ -*----------------------------------*\
| =========                 |                                                 |
| \\      /  F ield         | OpenFOAM: The Open Source CFD Toolbox           |
|  \\    /   O peration     | Version:  2206                                  |
|   \\  /    A nd           | Website:  www.openfoam.com                      |
|    \\/     M anipulation  |                                                 |
\*---------------------------------------------------------------------------*/
FoamFile
{
    version     2.0;
    format      ascii;
    arch        "LSB;label=32;scalar=64";
    class       volVectorField;
    location    "170";
    object      UMean;
}
// * * * * * * * * * * * * * * * * * * * * * * * * * * * * * * * * * * * * * //

dimensions      [0 1 -1 0 0 0 0];

internalField   nonuniform List<vector> 
93840
(
(0.722063 -0.742902 8.77663e-18)
(0.835124 0.36553 1.09339e-17)
(0.646245 -0.688568 8.10073e-18)
(0.727296 -0.322138 -2.80841e-18)
(0.875628 0.314301 7.0374e-18)
(0.588549 -0.604464 1.04295e-17)
(1.03218 0.347231 6.02526e-17)
(0.75182 -0.128784 6.45557e-18)
(0.856419 0.283288 1.51387e-18)
(0.630411 -0.477591 2.07779e-17)
(0.876995 -0.0873252 -2.03576e-17)
(1.02881 0.104317 9.87652e-17)
(0.82556 -0.113404 1.8907e-17)
(0.886606 0.221945 -5.44878e-17)
(0.631819 -0.314823 -6.57271e-18)
(0.846524 0.0492934 -1.41239e-16)
(0.819997 -0.070452 -5.65836e-17)
(0.857539 0.103128 6.4253e-17)
(0.774177 -0.171682 1.55416e-17)
(0.869435 0.102415 -6.62869e-17)
(0.659059 -0.189855 5.01045e-18)
(0.803504 -0.0120044 -1.2113e-17)
(0.871576 0.10666 -1.815e-16)
(0.819132 -0.0636029 -9.84198e-17)
(0.994984 0.184384 7.97873e-17)
(0.727446 -0.0544098 -5.11355e-18)
(0.879291 0.0615858 5.77389e-17)
(0.70813 -0.124482 2.67157e-18)
(0.804806 0.0458382 5.0294e-17)
(0.77425 -0.0665767 2.60601e-17)
(0.92093 0.103335 -1.73102e-16)
(0.831322 -0.0799231 -1.50624e-16)
(0.947599 0.0872993 1.09131e-16)
(0.818338 -0.0107845 -2.57371e-17)
(0.885724 0.0571099 -3.15463e-17)
(0.757823 -0.0815339 -1.28969e-17)
(0.789758 -0.0101884 5.78828e-17)
(0.837213 0.1069 6.5985e-17)
(0.777425 -0.052506 1.58962e-17)
(0.869885 0.0713736 -1.67181e-16)
(0.779657 -0.0515336 -2.84414e-16)
(0.937961 0.0608493 -7.13229e-17)
(0.801969 -0.00105457 -7.38413e-17)
(0.880936 0.0526757 3.77801e-17)
(0.75577 -0.0763965 8.1536e-18)
(0.816269 0.0475581 -6.71805e-18)
(0.798756 -0.0357793 6.95444e-17)
(0.855728 0.0960668 1.07525e-16)
(0.756018 -0.0429821 1.71492e-16)
(0.886311 0.0782104 1.14974e-16)
(0.801276 -0.00586116 -3.75808e-18)
(0.885917 0.0468796 1.20317e-16)
(0.816502 -0.0279949 2.6174e-17)
(0.88802 0.0413547 -1.96464e-17)
(0.801283 -0.0462577 -8.2713e-19)
(0.805755 -0.0100145 1.15376e-16)
(0.830736 0.0654103 4.04637e-18)
(0.794553 -0.0426798 6.28562e-17)
(0.832845 0.068159 1.12636e-16)
(0.781781 -0.038723 1.1157e-16)
(0.908358 0.0518766 8.62355e-17)
(0.788574 0.00198736 -1.00627e-16)
(0.901236 0.0546933 -7.10568e-17)
(0.82478 3.73774e-05 -8.31458e-17)
(0.879955 0.0409161 1.96859e-17)
(0.768088 -0.0688041 6.12696e-18)
(0.828513 0.0473225 -9.89673e-17)
(0.8016 -0.0161304 1.01582e-16)
(0.848628 0.0841826 -1.5277e-17)
(0.815185 -0.0262018 3.29332e-17)
(0.90031 0.0733402 4.6828e-17)
(0.793158 0.000638155 -6.87196e-17)
(0.849497 0.0348907 -3.49916e-17)
(0.809597 0.00209101 -6.09799e-17)
(0.869525 0.0407838 8.56465e-17)
(0.837539 -0.00602086 1.61767e-17)
(0.880054 0.0425535 -1.50746e-17)
(0.787314 -0.0216463 1.24033e-18)
(0.789049 -0.0093735 -2.1364e-17)
(0.835326 0.0661061 -1.46129e-16)
(0.799893 -0.026768 1.05252e-16)
(0.853564 0.0508117 4.81508e-17)
(0.818822 -0.0230908 2.1916e-17)
(0.881075 0.0440297 2.13623e-17)
(0.782949 0.0034144 1.4072e-16)
(0.870945 0.0266475 1.56112e-16)
(0.81504 0.00992176 -6.39551e-17)
(0.880053 0.0483794 -5.56643e-17)
(0.84183 0.0023777 -7.37558e-17)
(0.885858 0.0425783 1.18488e-17)
(0.778006 -0.0524106 5.47719e-18)
(0.827901 0.0471027 -1.05341e-16)
(0.786747 -0.0131938 -5.95096e-17)
(0.844741 0.0754032 -1.81984e-16)
(0.804363 -0.0148797 5.82301e-17)
(0.859357 0.0627876 9.11797e-18)
(0.775869 0.00467558 1.49534e-17)
(0.852633 0.0340222 -4.61527e-17)
(0.819548 0.0212114 -5.81243e-17)
(0.833069 0.0276634 -1.68818e-17)
(0.82299 0.00351883 -7.78271e-17)
(0.864974 0.0427142 6.62015e-17)
(0.832033 -0.00095492 2.11313e-17)
(0.88328 0.0358511 -1.19268e-17)
(0.796208 -0.00353075 1.45424e-18)
(0.799944 -0.00870177 5.58928e-17)
(0.840258 0.0662022 -7.65196e-17)
(0.79671 -0.0149388 1.28612e-17)
(0.839173 0.0493892 -2.59481e-16)
(0.807602 -0.0138702 -1.56405e-16)
(0.852769 0.0382851 -1.02164e-16)
(0.812831 0.00774014 -7.01061e-17)
(0.872877 0.0336772 -4.64927e-17)
(0.807488 0.0169987 6.73464e-17)
(0.860693 0.0318778 1.72069e-16)
(0.822117 0.0097009 -4.98868e-17)
(0.880649 0.0471199 -3.35175e-17)
(0.840561 0.00570505 -7.49786e-17)
(0.886993 0.0383042 7.3567e-18)
(0.784299 -0.0391928 6.2896e-18)
(0.833428 0.0474748 -1.12742e-17)
(0.798622 -0.0107762 7.4793e-17)
(0.837136 0.0703254 -8.82148e-17)
(0.778721 -0.0128137 7.01546e-17)
(0.830621 0.0526019 -5.56402e-17)
(0.769859 0.0086271 -3.89103e-18)
(0.822232 0.0318963 9.62335e-17)
(0.786102 0.0224647 4.58241e-17)
(0.834368 0.0225251 -2.22036e-17)
(0.827451 0.0210658 -5.06922e-17)
(0.839675 0.0275047 -1.92205e-18)
(0.820815 0.00559459 -8.45137e-17)
(0.863624 0.0388701 4.98874e-17)
(0.834405 0.00222182 2.15278e-17)
(0.884438 0.0320364 -9.52514e-18)
(0.802808 0.0103793 1.93718e-18)
(0.806078 -0.00811777 7.21146e-17)
(0.847947 0.0652002 -3.81544e-18)
(0.800373 -0.00911671 -2.49032e-17)
(0.827084 0.047771 -1.72228e-16)
(0.79365 -0.00741556 6.49168e-17)
(0.82445 0.0332092 1.33832e-16)
(0.795647 0.00725944 1.42331e-16)
(0.826719 0.0299085 -1.02942e-17)
(0.810452 0.0125112 -4.56981e-17)
(0.867128 0.0315244 -5.67805e-17)
(0.818957 0.0192038 3.22313e-17)
(0.861086 0.0360094 1.70636e-16)
(0.823886 0.0110649 -3.96268e-17)
(0.878315 0.0446882 -2.4985e-17)
(0.83745 0.00843247 -7.5217e-17)
(0.887175 0.0344584 2.91035e-18)
(0.793125 -0.0276105 7.06021e-18)
(0.840822 0.0461255 -6.88379e-17)
(0.799769 -0.0086326 8.51862e-17)
(0.837734 0.0650585 1.04915e-16)
(0.793916 -0.00985641 1.54591e-16)
(0.836892 0.0491723 6.41832e-18)
(0.779761 0.0123313 -1.08713e-16)
(0.807486 0.0292178 -2.6482e-16)
(0.776782 0.0211268 -1.33074e-16)
(0.814028 0.0250477 5.69935e-17)
(0.790911 0.0262202 5.3098e-17)
(0.830592 0.0180244 -1.00999e-17)
(0.832107 0.0206002 -4.47668e-17)
(0.841985 0.0263703 9.99675e-18)
(0.819817 0.00864179 -8.47045e-17)
(0.863194 0.0364067 4.07642e-17)
(0.834963 0.00514554 2.11475e-17)
(0.884978 0.0286086 -7.73396e-18)
(0.809235 0.0214691 1.4278e-18)
(0.815135 -0.00730206 3.03146e-17)
(0.856487 0.0645912 -9.99065e-17)
(0.815371 -0.00318878 8.82749e-17)
(0.8309 0.0472253 1.7809e-16)
(0.811611 0.000302429 1.79957e-16)
(0.833043 0.0308668 -4.02754e-17)
(0.809233 0.00750982 6.37766e-18)
(0.819736 0.028223 6.2074e-17)
(0.798747 0.0103499 1.70655e-16)
(0.822506 0.0291126 2.52102e-17)
(0.808616 0.0148343 -3.6307e-17)
(0.860885 0.0317468 -6.46855e-17)
(0.824456 0.0193472 5.27901e-18)
(0.861803 0.0364008 1.72452e-16)
(0.824576 0.0119898 -3.54104e-17)
(0.876094 0.042627 -2.45158e-17)
(0.836648 0.011473 -7.30232e-17)
(0.887054 0.0310841 -3.56618e-19)
(0.800832 -0.0177071 6.97402e-18)
(0.838698 0.0451036 -5.5005e-17)
(0.812133 -0.0057945 2.90972e-17)
(0.844583 0.0600421 -9.10619e-17)
(0.809029 -0.00600598 -1.5472e-17)
(0.841151 0.0449938 -1.95379e-17)
(0.796463 0.0146815 -7.52122e-17)
(0.820179 0.0287679 5.09291e-17)
(0.798042 0.0218496 -2.53862e-17)
(0.809712 0.0257135 -2.46594e-16)
(0.780979 0.0247046 -1.80914e-16)
(0.81097 0.0216496 2.83242e-17)
(0.794246 0.0286177 5.51488e-17)
(0.827296 0.0169678 -3.24959e-18)
(0.833389 0.0212273 -4.30789e-17)
(0.844156 0.0261425 1.88658e-17)
(0.820892 0.00976549 -8.61912e-17)
(0.86074 0.0338582 3.77869e-17)
(0.835732 0.00796679 1.83419e-17)
(0.885116 0.025729 -6.23683e-18)
(0.813402 0.0307531 1.16464e-18)
(0.817644 -0.00779233 -4.05158e-17)
(0.855764 0.0626062 -2.65572e-17)
(0.823909 0.00373933 6.1109e-17)
(0.835409 0.0456221 -9.33644e-17)
(0.823363 0.00637611 -7.47814e-17)
(0.829804 0.0294308 1.09886e-16)
(0.815543 0.00893765 2.9878e-16)
(0.830243 0.0258498 1.78027e-16)
(0.814434 0.00981984 2.23153e-17)
(0.820686 0.0268395 3.25735e-17)
(0.800252 0.012178 1.7032e-16)
(0.819705 0.0288683 4.58393e-17)
(0.807576 0.015305 -2.40116e-17)
(0.85684 0.0318466 -6.62514e-17)
(0.828187 0.0210181 -1.44318e-17)
(0.861585 0.036295 1.75211e-16)
(0.826538 0.0133417 -3.09585e-17)
(0.872293 0.0392675 -1.59066e-17)
(0.836636 0.0146785 -6.66691e-17)
(0.886455 0.0283453 -3.56418e-18)
(0.80865 -0.00896462 7.93143e-18)
(0.837876 0.04587 3.17054e-16)
(0.814547 -0.00342521 1.71415e-17)
(0.843391 0.0548943 -8.82494e-17)
(0.821097 -0.0025366 -1.29848e-17)
(0.847692 0.0420385 -7.71023e-17)
(0.813798 0.0169763 -1.72531e-17)
(0.831448 0.0271703 -6.48196e-17)
(0.807953 0.0234465 -1.29213e-16)
(0.821663 0.0254306 5.2789e-17)
(0.803393 0.0254014 2.2092e-17)
(0.810969 0.0240087 -2.19496e-16)
(0.784946 0.0265492 -2.01986e-16)
(0.807654 0.0196198 7.61743e-18)
(0.797275 0.0298712 5.22613e-17)
(0.826779 0.0166365 -2.74825e-18)
(0.834312 0.0219084 -4.32985e-17)
(0.843683 0.026162 2.48607e-17)
(0.823679 0.0114754 -8.61819e-17)
(0.860027 0.0313128 2.81991e-17)
(0.837402 0.0104694 1.50401e-17)
(0.884684 0.0233035 -5.99065e-18)
(0.815426 0.0387555 1.95461e-18)
(0.814263 -0.00769911 -4.04728e-16)
(0.85699 0.0605225 1.65288e-16)
(0.836049 0.0105788 -9.19832e-17)
(0.841497 0.045181 -2.02263e-16)
(0.835805 0.0110056 8.84654e-18)
(0.835419 0.0290367 -4.39865e-17)
(0.832285 0.0110116 -1.21576e-16)
(0.834872 0.0239294 -1.50722e-16)
(0.818818 0.00968023 1.91118e-16)
(0.829756 0.024702 2.05489e-16)
(0.816265 0.0114232 4.1867e-17)
(0.821403 0.0263525 1.88556e-17)
(0.802056 0.0130019 1.63154e-16)
(0.818379 0.0289532 5.90774e-17)
(0.806508 0.0155568 -1.45308e-17)
(0.854316 0.031241 -6.13311e-17)
(0.831983 0.0207982 -2.9694e-17)
(0.860418 0.0354993 1.75394e-16)
(0.826446 0.0150556 -2.71388e-17)
(0.869249 0.036908 -1.44424e-17)
(0.837679 0.0174373 -6.61598e-17)
(0.885121 0.0261244 -5.64559e-18)
(0.817761 -0.000661343 7.62459e-18)
(0.841884 0.04603 6.58733e-17)
(0.811695 -0.000895113 -4.60283e-16)
(0.844625 0.0505987 1.43229e-16)
(0.835525 0.00102852 8.12789e-17)
(0.853059 0.0402353 2.61028e-17)
(0.827357 0.0197544 8.38284e-17)
(0.836922 0.0259423 -9.84072e-17)
(0.820237 0.0249316 -4.9197e-17)
(0.833717 0.0240279 -3.13757e-17)
(0.812112 0.0266458 -1.44484e-16)
(0.822583 0.0241292 3.06432e-17)
(0.806935 0.0271321 4.70389e-17)
(0.811761 0.0229827 -1.92831e-16)
(0.788653 0.0276429 -2.11955e-16)
(0.805297 0.0183997 -9.11752e-18)
(0.798561 0.0312944 5.11766e-17)
(0.823911 0.0168474 -8.52883e-19)
(0.835908 0.023001 -4.38775e-17)
(0.843018 0.0263733 3.1519e-17)
(0.825678 0.012656 -8.56789e-17)
(0.858375 0.029228 2.48069e-17)
(0.839216 0.0125604 1.46643e-17)
(0.883838 0.0209496 -4.60029e-18)
(0.816723 0.0461472 4.85354e-18)
(0.819291 -0.00649256 6.97124e-17)
(0.861422 0.0591303 1.71927e-16)
(0.848117 0.0150705 -3.01074e-16)
(0.847934 0.0445112 2.05595e-16)
(0.847675 0.0142632 1.23187e-16)
(0.841421 0.0281665 -6.69501e-17)
(0.843551 0.012508 -1.15749e-16)
(0.839849 0.0227299 -3.71458e-17)
(0.835389 0.0109251 -9.63565e-17)
(0.836889 0.0224853 -1.96542e-16)
(0.820483 0.0102112 1.3241e-16)
(0.82945 0.023508 2.09331e-16)
(0.817986 0.0120979 5.59064e-17)
(0.821837 0.0261007 8.28307e-18)
(0.803093 0.0134757 1.58744e-16)
(0.816954 0.0257003 6.5151e-17)
(0.804681 0.0159385 -3.97707e-18)
(0.849222 0.0306945 -5.3629e-17)
(0.834758 0.0203258 -4.34078e-17)
(0.858318 0.034128 1.70898e-16)
(0.828464 0.0165426 -2.24769e-17)
(0.86674 0.0350851 -1.19854e-17)
(0.838819 0.019577 -6.64795e-17)
(0.887022 0.0232394 -8.01541e-18)
(0.839274 0.0288315 4.62411e-18)
(0.841365 0.0459921 1.3754e-16)
(0.812214 0.00171866 7.43103e-17)
(0.849672 0.048468 2.12431e-16)
(0.848899 0.00556436 -4.11981e-16)
(0.857111 0.0389246 -2.14975e-16)
(0.841335 0.0235007 -1.6609e-16)
(0.84725 0.0259222 -9.76809e-17)
(0.838066 0.0274398 8.04772e-17)
(0.841618 0.0238096 -5.75416e-17)
(0.823749 0.0269863 -5.91772e-17)
(0.834674 0.0228741 -2.12725e-17)
(0.815433 0.02841 -1.41835e-16)
(0.823379 0.0235835 1.80718e-17)
(0.810459 0.0283031 6.38425e-17)
(0.811797 0.0225794 -1.7533e-16)
(0.791799 0.0286134 -2.19704e-16)
(0.807978 0.0210552 -1.82469e-17)
(0.801658 0.0313782 4.64594e-17)
(0.823962 0.019285 -6.99524e-18)
(0.837829 0.0237553 -4.40179e-17)
(0.842744 0.0269132 3.8793e-17)
(0.827341 0.0146168 -8.72199e-17)
(0.857373 0.0273467 2.20898e-17)
(0.841349 0.0146045 1.19806e-17)
(0.889986 0.015959 -4.26404e-18)
(0.851927 0.0288527 6.00786e-18)
(0.816046 -0.00554773 7.36901e-17)
(0.855721 0.057616 1.46585e-16)
(0.844746 0.0190276 9.01468e-17)
(0.84541 0.0419665 3.70411e-16)
(0.849661 0.0168573 -6.60835e-17)
(0.838413 0.0267866 4.78835e-17)
(0.844529 0.0140299 2.61947e-16)
(0.84063 0.0211731 3.24692e-16)
(0.844088 0.0123715 5.46803e-18)
(0.841632 0.0210671 -1.57434e-17)
(0.837128 0.011049 -7.36203e-17)
(0.838947 0.0220163 -2.16924e-16)
(0.82197 0.010822 9.16814e-17)
(0.828821 0.0231312 2.08606e-16)
(0.819063 0.0129253 7.06047e-17)
(0.822724 0.0256868 1.04081e-18)
(0.803778 0.014978 1.51583e-16)
(0.814222 0.0254645 7.3368e-17)
(0.803826 0.0163814 1.00932e-17)
(0.840959 0.0274009 -3.89439e-17)
(0.836403 0.0195068 -5.51925e-17)
(0.856501 0.0332378 1.69464e-16)
(0.829742 0.0180468 -1.83699e-17)
(0.865195 0.0331332 -1.02553e-17)
(0.841945 0.0216887 -6.02788e-17)
(0.872907 0.0215455 -1.0209e-17)
(0.842307 0.0237702 4.91099e-18)
(0.831266 0.0453963 -4.91277e-16)
(0.806629 0.00418974 -6.24715e-17)
(0.843847 0.0470312 8.14253e-17)
(0.850435 0.011335 -1.10979e-17)
(0.851027 0.0370773 3.37493e-16)
(0.839013 0.0257314 3.60816e-16)
(0.836374 0.02512 3.10141e-16)
(0.833242 0.0286256 2.07709e-17)
(0.845429 0.0234117 -9.90115e-17)
(0.839723 0.0285764 7.18917e-17)
(0.843658 0.0229077 -3.67843e-17)
(0.826125 0.0280005 -6.30839e-17)
(0.834642 0.0220943 -1.85505e-17)
(0.817203 0.0294516 -1.41433e-16)
(0.824076 0.0234151 7.54078e-18)
(0.812927 0.0287902 7.48868e-17)
(0.812121 0.0223583 -1.58678e-16)
(0.793421 0.0289746 -2.25334e-16)
(0.806582 0.0204719 -2.81985e-17)
(0.805065 0.0304624 3.97998e-17)
(0.827029 0.0226798 -1.39558e-17)
(0.840431 0.0244103 -4.94135e-17)
(0.844355 0.0263575 4.36274e-17)
(0.828728 0.0166184 -8.44825e-17)
(0.855591 0.0268125 2.05876e-17)
(0.84912 0.0174948 8.10391e-18)
(0.872312 0.0226741 -2.56762e-18)
(0.840281 0.0353649 6.09836e-18)
(0.810088 -0.00490195 5.24276e-16)
(0.841615 0.0554849 -3.02105e-16)
(0.838974 0.0223049 4.34669e-18)
(0.837174 0.0399174 1.80222e-16)
(0.844168 0.0197934 -8.02614e-17)
(0.82768 0.0256827 -1.58507e-16)
(0.837997 0.0158854 -3.13918e-16)
(0.833639 0.0204965 -4.04552e-16)
(0.841795 0.0132371 -2.09636e-17)
(0.840881 0.019785 3.19768e-16)
(0.844345 0.0122869 5.38532e-17)
(0.843348 0.0206127 -2.64441e-18)
(0.838306 0.0113092 -5.48353e-17)
(0.841141 0.0218723 -2.21851e-16)
(0.82421 0.0134785 4.35562e-17)
(0.828491 0.0224081 2.06523e-16)
(0.819998 0.0137231 8.07617e-17)
(0.823043 0.0249631 -1.43268e-17)
(0.805694 0.0154695 1.43011e-16)
(0.812493 0.0262693 7.4863e-17)
(0.80444 0.0174028 1.81157e-17)
(0.837404 0.0280592 -3.28607e-17)
(0.836738 0.0198882 -6.22275e-17)
(0.857122 0.0320646 1.66222e-16)
(0.830633 0.0192434 -1.49814e-17)
(0.862905 0.0308806 -7.82521e-18)
(0.847603 0.0197052 -5.69828e-17)
(0.877058 0.0245772 -1.25162e-17)
(0.83749 0.0303276 5.3855e-18)
(0.827195 0.0446038 -1.44545e-16)
(0.798703 0.00577062 6.30264e-16)
(0.831744 0.0447016 -2.31849e-16)
(0.842822 0.0164849 -1.62174e-16)
(0.837463 0.0348066 -4.36109e-18)
(0.832428 0.0274679 1.29857e-16)
(0.831979 0.0248487 8.74815e-17)
(0.834133 0.029157 1.8027e-16)
(0.836431 0.0229287 3.74642e-16)
(0.831534 0.0294918 1.15646e-16)
(0.844397 0.0228228 -9.27016e-17)
(0.84021 0.0289504 7.03646e-17)
(0.844678 0.0226049 -2.35876e-17)
(0.828126 0.028611 -6.52158e-17)
(0.834533 0.0214521 -1.56888e-17)
(0.82135 0.0274575 -1.23032e-16)
(0.823741 0.0229006 1.6779e-18)
(0.81492 0.0286999 8.35784e-17)
(0.812653 0.0225511 -1.33628e-16)
(0.795734 0.0292536 -2.20406e-16)
(0.805368 0.0205762 -3.27167e-17)
(0.805676 0.0291044 3.74603e-17)
(0.826842 0.0228852 -1.19107e-17)
(0.840103 0.024927 -5.16434e-17)
(0.846125 0.0264567 5.10588e-17)
(0.830132 0.0181364 -8.47418e-17)
(0.853974 0.0272959 1.68158e-17)
(0.8462 0.0178747 8.11857e-18)
(0.877935 0.0207101 -3.48026e-18)
(0.840333 0.0410763 6.29211e-18)
(0.805977 -0.00468222 -1.35688e-16)
(0.826135 0.0533993 -3.75846e-16)
(0.826028 0.0259692 3.5048e-16)
(0.822791 0.0363454 -4.45547e-16)
(0.837633 0.0227025 -5.53536e-16)
(0.820035 0.0250578 -5.72846e-16)
(0.834555 0.018038 -5.23373e-16)
(0.827552 0.0202509 -3.43225e-16)
(0.83464 0.0137982 -3.38221e-16)
(0.833438 0.0191316 -4.80476e-16)
(0.840224 0.0127877 -1.26893e-16)
(0.841831 0.0192595 2.95488e-16)
(0.845193 0.0122181 7.70513e-17)
(0.845022 0.0204254 8.51971e-18)
(0.838314 0.0121436 -4.03531e-17)
(0.841682 0.0218845 -2.24262e-16)
(0.824006 0.0140982 1.76966e-17)
(0.829207 0.0224571 1.98348e-16)
(0.82123 0.0144048 9.00434e-17)
(0.81975 0.0236743 -4.52485e-17)
(0.806512 0.0155549 1.17363e-16)
(0.812068 0.026669 7.32665e-17)
(0.805345 0.0177295 2.24135e-17)
(0.836713 0.0286295 -2.83364e-17)
(0.836365 0.0203508 -7.00078e-17)
(0.855598 0.030009 1.49304e-16)
(0.832342 0.0202016 -1.5645e-17)
(0.861093 0.0305097 -6.00333e-18)
(0.846367 0.0204171 -5.63678e-17)
(0.881567 0.0227675 -1.22556e-17)
(0.83954 0.0349683 5.74222e-18)
(0.830433 0.0433052 3.45649e-16)
(0.787414 0.00686978 -3.89306e-17)
(0.812734 0.0420487 -2.52396e-16)
(0.827727 0.0216161 7.03203e-16)
(0.82309 0.0330471 4.28722e-16)
(0.826906 0.0293791 2.66587e-16)
(0.824229 0.0251146 2.88544e-16)
(0.823235 0.0291598 4.34131e-16)
(0.827617 0.0220265 2.65509e-16)
(0.830406 0.0286306 1.70695e-16)
(0.836925 0.022451 3.71156e-16)
(0.830856 0.0297988 1.62019e-16)
(0.843786 0.0225054 -8.1396e-17)
(0.840815 0.028813 6.89416e-17)
(0.845551 0.0223541 -1.38599e-17)
(0.831363 0.0276879 -6.27164e-17)
(0.835393 0.0216726 -1.47707e-17)
(0.82259 0.0275751 -1.20421e-16)
(0.823354 0.0225889 -3.63965e-18)
(0.81717 0.0285293 9.30552e-17)
(0.818944 0.0234591 -9.53091e-17)
(0.798501 0.0289883 -2.06629e-16)
(0.803887 0.0203533 -4.04969e-17)
(0.804985 0.0285934 3.60903e-17)
(0.827612 0.022767 -9.92736e-18)
(0.840397 0.0253157 -5.42374e-17)
(0.848835 0.0271437 6.79432e-17)
(0.832397 0.0191425 -7.99828e-17)
(0.853278 0.0269378 1.64634e-17)
(0.844989 0.0190207 8.0747e-18)
(0.880134 0.0195316 -4.84335e-18)
(0.842804 0.0455304 6.50427e-18)
(0.810344 -0.00410407 -4.8481e-16)
(0.82413 0.0492997 3.05231e-16)
(0.818438 0.0288874 -6.51935e-17)
(0.810521 0.035742 -4.5388e-16)
(0.830061 0.0248182 4.38401e-16)
(0.81214 0.0243759 4.17649e-16)
(0.826676 0.0194252 4.27217e-16)
(0.817521 0.0200232 3.92082e-17)
(0.827994 0.0143006 -4.04489e-16)
(0.827772 0.0200448 -3.45886e-16)
(0.833477 0.0131948 -3.13575e-16)
(0.834143 0.0199917 -4.47561e-16)
(0.840013 0.0120922 -1.84594e-16)
(0.84192 0.0196907 2.63628e-16)
(0.844998 0.0130041 9.19878e-17)
(0.846321 0.0203076 1.60673e-17)
(0.838677 0.0125301 -2.89286e-17)
(0.84229 0.0215205 -2.22828e-16)
(0.825451 0.0147615 -4.73786e-18)
(0.829142 0.0221039 1.86675e-16)
(0.821552 0.0155423 9.88269e-17)
(0.817341 0.0236099 -4.27011e-17)
(0.807315 0.0156523 1.0477e-16)
(0.812565 0.0268507 6.84443e-17)
(0.804952 0.0183635 2.59958e-17)
(0.835959 0.0288355 -2.57752e-17)
(0.836735 0.0211612 -7.62456e-17)
(0.855314 0.0295868 1.46798e-16)
(0.834107 0.0206982 -1.5388e-17)
(0.860905 0.0296044 -6.05463e-18)
(0.846166 0.0215129 -5.30631e-17)
(0.881278 0.0221519 -1.44225e-17)
(0.843569 0.0391511 1.83961e-18)
(0.826362 0.041357 1.02675e-16)
(0.785326 0.0091357 -5.07928e-16)
(0.807657 0.0401323 3.29233e-16)
(0.822701 0.0249557 6.5969e-17)
(0.818266 0.0334179 -8.3086e-16)
(0.826603 0.0317801 -7.0358e-16)
(0.818135 0.0260131 -5.53492e-16)
(0.818977 0.0294313 -5.16582e-16)
(0.822907 0.0224155 -1.36229e-16)
(0.8199 0.0287959 3.39804e-16)
(0.827624 0.0215032 2.83736e-16)
(0.828556 0.0278113 1.59568e-16)
(0.838926 0.0204762 3.0961e-16)
(0.829852 0.0292451 1.72271e-16)
(0.843839 0.0218644 -6.15e-17)
(0.842517 0.0283518 6.95401e-17)
(0.845991 0.0223364 -7.0416e-18)
(0.832457 0.0281217 -6.31983e-17)
(0.836136 0.02185 -1.57341e-17)
(0.823255 0.0277456 -1.21158e-16)
(0.823626 0.0230094 -5.50405e-18)
(0.818121 0.0282809 9.61712e-17)
(0.819614 0.0232703 -8.42247e-17)
(0.800389 0.0289865 -2.03964e-16)
(0.805264 0.0205952 -3.67683e-17)
(0.804784 0.0279735 3.53431e-17)
(0.82759 0.0229568 -7.65924e-18)
(0.840505 0.0252361 -5.97493e-17)
(0.849588 0.0269442 7.08824e-17)
(0.833877 0.0201633 -7.94898e-17)
(0.853224 0.0259247 1.41874e-17)
(0.846416 0.0203008 7.16532e-18)
(0.879662 0.019002 -4.70347e-18)
(0.846856 0.0491164 1.04892e-17)
(0.805974 -0.00356436 -2.74557e-17)
(0.818914 0.044294 1.66987e-16)
(0.810286 0.0303975 -3.67001e-16)
(0.801121 0.0359227 4.23973e-16)
(0.824967 0.0266123 7.08894e-16)
(0.808428 0.0236704 4.54793e-16)
(0.822795 0.020442 3.68731e-16)
(0.815476 0.020127 4.95128e-16)
(0.822979 0.0148137 6.9013e-16)
(0.819049 0.0204347 2.84137e-16)
(0.825502 0.0131489 -3.15455e-16)
(0.828165 0.0202785 -3.43883e-16)
(0.832271 0.0139762 -2.94244e-16)
(0.833618 0.0200862 -4.52793e-16)
(0.838459 0.0140386 -1.59626e-16)
(0.842636 0.0192129 2.47539e-16)
(0.845654 0.0129043 1.05653e-16)
(0.847589 0.0200133 2.38079e-17)
(0.839723 0.012509 -1.75302e-17)
(0.842627 0.0210292 -2.18428e-16)
(0.826843 0.0151409 -1.91832e-17)
(0.829135 0.021924 1.79889e-16)
(0.822003 0.0166559 1.05518e-16)
(0.818367 0.0235802 -4.50134e-17)
(0.807725 0.0159222 9.67852e-17)
(0.811883 0.0268257 6.06063e-17)
(0.804459 0.019549 2.87669e-17)
(0.835108 0.0289002 -2.19581e-17)
(0.837398 0.021814 -7.917e-17)
(0.856181 0.0294816 1.45517e-16)
(0.834936 0.0214014 -1.30856e-17)
(0.858533 0.0289809 -2.28624e-18)
(0.848295 0.0221056 -5.68172e-17)
(0.880087 0.0218718 -1.59239e-17)
(0.847681 0.0428252 2.94157e-18)
(0.825827 0.0393661 1.33522e-16)
(0.781839 0.0115774 -4.80845e-17)
(0.805913 0.0389311 1.17163e-16)
(0.822984 0.0280319 -7.26255e-16)
(0.815571 0.034085 -2.18266e-16)
(0.825466 0.0339554 2.24043e-16)
(0.813416 0.026367 1.59766e-16)
(0.816495 0.0299218 -6.80083e-18)
(0.818764 0.0223956 -3.08615e-16)
(0.814619 0.0281913 -5.55259e-16)
(0.823831 0.0219082 -2.51419e-16)
(0.818749 0.028142 2.85016e-16)
(0.828203 0.021116 2.90347e-16)
(0.82807 0.0272585 1.45405e-16)
(0.83762 0.0204718 3.02095e-16)
(0.834771 0.0268556 1.28009e-16)
(0.842602 0.0218699 -5.66055e-17)
(0.842747 0.0282528 6.74502e-17)
(0.846488 0.0222172 -1.96693e-18)
(0.833574 0.028199 -6.17545e-17)
(0.836888 0.0220923 -1.78963e-17)
(0.824156 0.027729 -1.20425e-16)
(0.824074 0.0230427 -1.00277e-17)
(0.819998 0.0274793 1.02558e-16)
(0.819781 0.0233126 -7.149e-17)
(0.801865 0.029162 -2.01496e-16)
(0.806511 0.0222049 -2.82236e-17)
(0.805191 0.0268925 3.52491e-17)
(0.827388 0.0230408 -5.37458e-18)
(0.840745 0.0253348 -6.22237e-17)
(0.850589 0.0267818 7.31035e-17)
(0.835021 0.0212509 -7.79323e-17)
(0.853323 0.0253112 9.94363e-18)
(0.848395 0.0209002 8.36627e-18)
(0.878221 0.0189419 -4.93048e-18)
(0.851091 0.0523217 1.4291e-17)
(0.80444 -0.0034966 1.09317e-16)
(0.812769 0.038547 2.7741e-16)
(0.803505 0.0320126 -1.53198e-17)
(0.799786 0.0359709 2.54805e-16)
(0.82215 0.0289572 -4.98384e-16)
(0.806051 0.0233825 -4.61285e-16)
(0.819058 0.0213358 -2.93274e-16)
(0.812655 0.0203468 -2.40295e-16)
(0.8173 0.0153705 -9.23666e-17)
(0.817094 0.0207414 2.90447e-16)
(0.821101 0.0137319 6.70264e-16)
(0.819896 0.0208371 3.79572e-16)
(0.823584 0.0136949 -2.38743e-16)
(0.828367 0.0199124 -3.3449e-16)
(0.83191 0.0139262 -2.6944e-16)
(0.834464 0.0211154 -4.29473e-16)
(0.835803 0.0137164 -1.94184e-16)
(0.843455 0.0192783 2.23603e-16)
(0.845829 0.013106 1.12575e-16)
(0.848489 0.0199182 3.00472e-17)
(0.840314 0.0139504 -1.34429e-17)
(0.842314 0.0212652 -1.9432e-16)
(0.827442 0.0157115 -4.15676e-17)
(0.827346 0.0226306 1.50231e-16)
(0.82249 0.0168427 1.11194e-16)
(0.819482 0.0236249 -4.52981e-17)
(0.808091 0.0161377 7.86849e-17)
(0.812146 0.0257907 5.54328e-17)
(0.804041 0.0199194 3.1222e-17)
(0.833822 0.029153 -2.10037e-17)
(0.837679 0.0223435 -8.71834e-17)
(0.856884 0.0292427 1.43105e-16)
(0.835519 0.02204 -8.87042e-18)
(0.857313 0.0281673 -2.75201e-19)
(0.850193 0.022527 -5.26576e-17)
(0.878668 0.0216589 -1.72415e-17)
(0.851607 0.0461897 4.37933e-18)
(0.824609 0.0372777 8.30967e-17)
(0.784756 0.0127503 1.80924e-18)
(0.803653 0.0378101 9.58692e-17)
(0.816294 0.0312288 8.48215e-18)
(0.80854 0.0347377 6.55435e-16)
(0.823124 0.0356913 3.67466e-16)
(0.813195 0.0269326 -4.62822e-17)
(0.820272 0.0307178 -1.31803e-17)
(0.820088 0.0225553 1.8599e-16)
(0.813332 0.0283145 1.16016e-16)
(0.819777 0.0217141 -2.05408e-16)
(0.813997 0.0274844 -5.2594e-16)
(0.82368 0.0211101 -3.16389e-16)
(0.819954 0.0268297 2.28861e-16)
(0.828087 0.0211207 2.92428e-16)
(0.828044 0.0265116 1.34953e-16)
(0.837949 0.0201653 2.58632e-16)
(0.834466 0.0266213 1.40183e-16)
(0.842032 0.0220964 -4.28423e-17)
(0.844055 0.0280425 6.85274e-17)
(0.846714 0.0219446 1.69504e-18)
(0.83506 0.0269183 -5.5867e-17)
(0.839407 0.021579 -3.9712e-17)
(0.825746 0.026992 -1.13755e-16)
(0.826786 0.0223438 1.0659e-17)
(0.820532 0.0275347 1.0728e-16)
(0.81996 0.0233302 -6.31938e-17)
(0.803836 0.0290418 -1.89063e-16)
(0.805423 0.0221788 -3.60609e-17)
(0.805839 0.0266276 3.16442e-17)
(0.827318 0.0230836 -6.71107e-19)
(0.840879 0.0254894 -6.15864e-17)
(0.851487 0.0266353 7.50576e-17)
(0.836126 0.0220335 -7.95511e-17)
(0.852479 0.0253703 8.0526e-18)
(0.850086 0.0210158 4.53255e-18)
(0.876836 0.018795 -5.60511e-18)
(0.855185 0.0552294 9.21435e-18)
(0.81227 -0.00306133 -2.59367e-16)
(0.823106 0.035917 -8.94995e-17)
(0.816415 0.0336562 -1.22192e-16)
(0.806697 0.0359144 9.04269e-17)
(0.824482 0.0317342 -6.64032e-17)
(0.81292 0.0240223 1.67893e-16)
(0.830385 0.0227543 1.90531e-16)
(0.829141 0.02147 1.05832e-16)
(0.82626 0.0165804 -1.99649e-17)
(0.818233 0.0211718 -2.20452e-16)
(0.816538 0.014393 -1.73898e-16)
(0.8178 0.0210535 1.90258e-16)
(0.820092 0.0133583 6.32828e-16)
(0.820167 0.0213667 4.21026e-16)
(0.821709 0.0142017 -1.82324e-16)
(0.828627 0.0197248 -3.23034e-16)
(0.831217 0.0138807 -2.55825e-16)
(0.835029 0.0207513 -4.01138e-16)
(0.8364 0.0136166 -2.19701e-16)
(0.843742 0.0203897 1.83919e-16)
(0.845178 0.0129718 1.18622e-16)
(0.848968 0.0200979 3.43008e-17)
(0.839911 0.0142819 -4.875e-18)
(0.842276 0.0215409 -1.88793e-16)
(0.827992 0.0164898 -5.92175e-17)
(0.82728 0.0225959 1.42199e-16)
(0.823034 0.0176313 1.17633e-16)
(0.820035 0.023619 -4.43514e-17)
(0.808151 0.0175802 5.21357e-17)
(0.811918 0.0261516 5.10057e-17)
(0.804543 0.0197718 3.3444e-17)
(0.833116 0.0293978 -1.67688e-17)
(0.838061 0.0228789 -9.21649e-17)
(0.857745 0.0290258 1.39523e-16)
(0.836314 0.022495 -1.17618e-17)
(0.856635 0.0279708 -3.75826e-18)
(0.851717 0.0228588 -4.45456e-17)
(0.877734 0.0212906 -1.83702e-17)
(0.855723 0.0493627 9.1565e-18)
(0.831973 0.0353754 -6.14312e-18)
(0.799321 0.0131388 -1.69401e-16)
(0.813781 0.03779 1.13153e-16)
(0.824273 0.034427 1.81822e-16)
(0.818903 0.0352518 1.54327e-16)
(0.836275 0.0374676 -3.72284e-16)
(0.830639 0.0278001 -4.01608e-16)
(0.837602 0.0317536 -2.15643e-16)
(0.831035 0.0230027 -2.26744e-16)
(0.819865 0.0284699 -1.27836e-16)
(0.822282 0.0220367 1.43936e-16)
(0.812155 0.0277653 1.51923e-16)
(0.82018 0.0216669 -1.41707e-16)
(0.81338 0.0270124 -5.01216e-16)
(0.823782 0.0209319 -3.35233e-16)
(0.821052 0.0258068 1.90643e-16)
(0.827545 0.0212328 2.95277e-16)
(0.828101 0.0260417 1.2722e-16)
(0.837978 0.0205942 2.37565e-16)
(0.834037 0.0261604 1.46578e-16)
(0.844714 0.02102 -1.42784e-17)
(0.844012 0.0279465 6.87352e-17)
(0.847789 0.0218483 7.97491e-18)
(0.835902 0.0267686 -5.33058e-17)
(0.839731 0.0214276 -4.18281e-17)
(0.826589 0.0263354 -1.14557e-16)
(0.827177 0.0221919 5.67514e-18)
(0.821897 0.0269003 1.08346e-16)
(0.820249 0.0234866 -5.46324e-17)
(0.805549 0.0277521 -1.64934e-16)
(0.805694 0.0222137 -3.60699e-17)
(0.805499 0.0268289 3.34828e-17)
(0.827305 0.0237291 2.92181e-19)
(0.840626 0.0256985 -6.36662e-17)
(0.851991 0.0264359 7.50671e-17)
(0.836995 0.022632 -6.88529e-17)
(0.851718 0.0255621 1.11523e-17)
(0.851277 0.0215198 -2.34953e-18)
(0.875834 0.0185084 -9.76502e-18)
(0.859535 0.057726 9.54938e-19)
(0.822105 -0.00278233 -2.38702e-16)
(0.834529 0.0334345 -7.76196e-17)
(0.826405 0.0354186 -9.09925e-17)
(0.815081 0.0359191 1.24584e-16)
(0.837317 0.0342772 -2.04291e-16)
(0.832154 0.0251339 -1.14937e-16)
(0.849824 0.0241363 -1.42324e-16)
(0.84551 0.0228978 -8.86193e-17)
(0.83955 0.0176265 2.8483e-17)
(0.835489 0.0224116 1.14619e-16)
(0.828769 0.0156457 3.44458e-17)
(0.822063 0.0214181 -1.87728e-16)
(0.8166 0.0137863 -1.95807e-16)
(0.818225 0.0212291 1.27289e-16)
(0.818354 0.0146619 5.26116e-16)
(0.821017 0.0210268 4.3699e-16)
(0.82043 0.0141982 -1.4208e-16)
(0.828844 0.0196401 -3.16164e-16)
(0.829653 0.0144614 -2.24893e-16)
(0.835332 0.0209574 -3.51662e-16)
(0.836011 0.0139347 -2.37832e-16)
(0.842386 0.0208485 1.58108e-16)
(0.845428 0.012796 1.23432e-16)
(0.84938 0.0200844 3.86186e-17)
(0.840621 0.0146704 5.28995e-19)
(0.842656 0.0216082 -1.85908e-16)
(0.828532 0.0169787 -7.31707e-17)
(0.827576 0.0228578 1.35557e-16)
(0.823177 0.0178065 1.24596e-16)
(0.820848 0.0237307 -4.21515e-17)
(0.808715 0.0178918 4.14829e-17)
(0.812142 0.0265275 5.02294e-17)
(0.804566 0.0198126 3.5478e-17)
(0.832964 0.0287889 -1.2573e-17)
(0.838292 0.023461 -9.65969e-17)
(0.858323 0.0288345 1.44271e-16)
(0.837184 0.0229374 -9.83456e-18)
(0.856204 0.027739 -2.5272e-18)
(0.852511 0.0230804 -4.14047e-17)
(0.876487 0.021048 -1.70553e-17)
(0.859518 0.0520624 1.2542e-17)
(0.837141 0.033803 1.2845e-16)
(0.816283 0.0133596 -3.16512e-16)
(0.827579 0.037842 -1.10905e-16)
(0.839361 0.0372813 -3.82675e-16)
(0.835539 0.0356287 -3.57987e-16)
(0.852926 0.0388803 -3.0569e-16)
(0.846669 0.0283467 1.31469e-16)
(0.847781 0.0324092 3.42526e-16)
(0.843659 0.0231175 1.61076e-16)
(0.836856 0.0291909 -8.79206e-17)
(0.835527 0.0221849 -2.19556e-16)
(0.819932 0.0271846 -1.68922e-16)