/*--------------------------------*- C++ -*----------------------------------*\
| =========                 |                                                 |
| \\      /  F ield         | OpenFOAM: The Open Source CFD Toolbox           |
|  \\    /   O peration     | Version:  2206                                  |
|   \\  /    A nd           | Website:  www.openfoam.com                      |
|    \\/     M anipulation  |                                                 |
\*---------------------------------------------------------------------------*/
FoamFile
{
    version     2.0;
    format      ascii;
    arch        "LSB;label=32;scalar=64";
    class       volScalarField;
    location    "210";
    object      alphat;
}
// * * * * * * * * * * * * * * * * * * * * * * * * * * * * * * * * * * * * * //

dimensions      [1 -1 -1 0 0 0 0];

internalField   nonuniform List<scalar> 
93840
(
1.34613e-06
1.59914e-13
1.37754e-06
9.8656e-08
1.19519e-16
1.28206e-06
6.48058e-10
4.7116e-08
9.5752e-12
9.28892e-07
5.54728e-08
1.35249e-08
5.9592e-08
6.6672e-10
7.71732e-07
1.88046e-08
2.74096e-08
1.1457e-08
8.63216e-08
1.66619e-09
6.6413e-07
2.99091e-08
2.08782e-08
3.60487e-08
4.54173e-09
5.3627e-08
1.9991e-09
7.81994e-07
2.23471e-08
2.7228e-08
2.36152e-08
5.22474e-08
8.56532e-09
6.35089e-08
1.52442e-09
7.25681e-07
3.10966e-08
1.83275e-08
3.413e-08
2.25638e-08
4.20293e-08
1.12422e-08
4.46363e-08
1.46288e-09
8.08661e-07
2.45341e-08
2.95085e-08
2.13188e-08
2.92837e-08
2.35235e-08
3.77242e-08
2.05367e-08
4.37848e-08
1.3895e-09
7.65738e-07
3.23059e-08
2.05135e-08
3.24109e-08
2.29712e-08
3.17471e-08
2.44767e-08
2.73372e-08
2.22622e-08
4.15759e-08
1.56894e-09
8.21634e-07
2.54287e-08
3.04068e-08
2.08255e-08
3.22076e-08
2.41502e-08
2.92396e-08
2.43533e-08
3.24597e-08
2.33827e-08
3.74763e-08
1.44307e-09
7.60722e-07
3.22038e-08
2.38162e-08
3.33129e-08
2.51322e-08
3.09577e-08
2.5303e-08
3.17625e-08
2.50561e-08
2.97933e-08
2.33996e-08
3.85487e-08
1.48518e-09
8.05272e-07
2.57006e-08
3.10199e-08
2.13086e-08
3.17281e-08
2.42045e-08
3.01692e-08
2.60247e-08
3.07862e-08
2.54732e-08
3.12426e-08
2.44522e-08
3.91148e-08
1.48237e-09
7.77911e-07
3.11696e-08
2.535e-08
3.40738e-08
2.61623e-08
3.10925e-08
2.64313e-08
3.16529e-08
2.54115e-08
3.14006e-08
2.59423e-08
2.95975e-08
2.29197e-08
3.82893e-08
1.53189e-09
7.99068e-07
2.48257e-08
3.13373e-08
2.2753e-08
3.25533e-08
2.54932e-08
3.14859e-08
2.61643e-08
3.08616e-08
2.62526e-08
3.04445e-08
2.53879e-08
3.13375e-08
2.44118e-08
3.7031e-08
1.49252e-09
7.72339e-07
3.15846e-08
2.48365e-08
3.4982e-08
2.68499e-08
3.21644e-08
2.70979e-08
3.16615e-08
2.67158e-08
3.18428e-08
2.60213e-08
3.13169e-08
2.60651e-08
2.96433e-08
2.36543e-08
3.8417e-08
1.56907e-09
7.8833e-07
2.5295e-08
3.25489e-08
2.38141e-08
3.25186e-08
2.54099e-08
3.14835e-08
2.70534e-08
3.1524e-08
2.58749e-08
3.11976e-08
2.64847e-08
3.04687e-08
2.5441e-08
3.13445e-08
2.45097e-08
3.79277e-08
1.60304e-09
7.68099e-07
3.1157e-08
2.55121e-08
3.40965e-08
2.66017e-08
3.27761e-08
2.73795e-08
3.24096e-08
2.69023e-08
3.15806e-08
2.67931e-08
3.14947e-08
2.64764e-08
3.18403e-08
2.60734e-08
2.95949e-08
2.33761e-08
3.73932e-08
1.64999e-09
7.79123e-07
2.49011e-08
3.06722e-08
2.33114e-08
3.26412e-08
2.58877e-08
3.12037e-08
2.78863e-08
3.24409e-08
2.69202e-08
3.195e-08
2.6462e-08
3.16198e-08
2.69816e-08
3.04768e-08
2.59579e-08
3.14892e-08
2.50048e-08
3.69547e-08
1.64584e-09
7.62196e-07
3.14668e-08
2.4315e-08
3.3463e-08
2.72814e-08
3.28801e-08
2.71858e-08
3.2756e-08
2.78354e-08
3.26466e-08
2.7191e-08
3.1853e-08
2.67254e-08
3.17485e-08
2.64913e-08
3.15275e-08
2.61847e-08
2.96795e-08
2.36096e-08
3.78685e-08
1.67535e-09
7.75558e-07
2.50602e-08
3.11767e-08
2.51116e-08
3.20109e-08
2.59219e-08
3.04782e-08
2.79331e-08
3.23379e-08
2.77432e-08
3.22809e-08
2.67596e-08
3.24278e-08
2.69272e-08
3.16132e-08
2.66798e-08
3.08851e-08
2.55089e-08
3.12789e-08
2.4363e-08
3.7313e-08
1.71303e-09
7.63419e-07
3.20783e-08
2.53445e-08
3.34271e-08
2.69052e-08
3.33497e-08
2.6728e-08
3.26469e-08
2.73029e-08
3.278e-08
2.7281e-08
3.27336e-08
2.74822e-08
3.19107e-08
2.68978e-08
3.21926e-08
2.7303e-08
3.17715e-08
2.66592e-08
3.00189e-08
2.36028e-08
3.71867e-08
1.77196e-09
7.78227e-07
2.56729e-08
3.18906e-08
2.48668e-08
3.20192e-08
2.68339e-08
3.0553e-08
2.81716e-08
3.21646e-08
2.74811e-08
3.26415e-08
2.72154e-08
3.26609e-08
2.69382e-08
3.22675e-08
2.65279e-08
3.18643e-08
2.66526e-08
3.07738e-08
2.57095e-08
3.13737e-08
2.43122e-08
3.64574e-08
1.74083e-09
7.67816e-07
3.16738e-08
2.5479e-08
3.23035e-08
2.65676e-08
3.3383e-08
2.66176e-08
3.24862e-08
2.69847e-08
3.2879e-08
2.80708e-08
3.32448e-08
2.75704e-08
3.24898e-08
2.73715e-08
3.23774e-08
2.72862e-08
3.1973e-08
2.76138e-08
3.16357e-08
2.73734e-08
3.02115e-08
2.38221e-08
3.64533e-08
1.75165e-09
7.59124e-07
2.52374e-08
3.01249e-08
2.42588e-08
3.20034e-08
2.70528e-08
3.05812e-08
2.81986e-08
3.12336e-08
2.80514e-08
3.20591e-08
2.7595e-08
3.27596e-08
2.72816e-08
3.27834e-08
2.68423e-08
3.21351e-08
2.67733e-08
3.17553e-08
2.66236e-08
3.07894e-08
2.57838e-08
3.16758e-08
2.45417e-08
3.68119e-08
1.79473e-09
7.2319e-07
3.18561e-08
2.45522e-08
3.35209e-08
2.74216e-08
3.29809e-08
2.67239e-08
3.24998e-08
2.75323e-08
3.20692e-08
2.7604e-08
3.27053e-08
2.82208e-08
3.35603e-08
2.80493e-08
3.25768e-08
2.77819e-08
3.21389e-08
2.79204e-08
3.25108e-08
2.81576e-08
3.09867e-08
2.71234e-08
2.99966e-08
2.39125e-08
3.7275e-08
2.02984e-09
7.67381e-07
2.48905e-08
3.21273e-08
2.67811e-08
3.17501e-08
2.66446e-08
3.07301e-08
2.83674e-08
3.12551e-08
2.76812e-08
3.20165e-08
2.75558e-08
3.27748e-08
2.77887e-08
3.28121e-08
2.72691e-08
3.24353e-08
2.73563e-08
3.24742e-08
2.71056e-08
3.1949e-08
2.66007e-08
3.13652e-08
2.51177e-08
3.11489e-08
2.44786e-08
3.69291e-08
1.96178e-09
7.33372e-07
3.17134e-08
2.61063e-08
3.01773e-08
2.5725e-08
3.23256e-08
2.67843e-08
3.28131e-08
2.71611e-08
3.27205e-08
2.73269e-08
3.19045e-08
2.8069e-08
3.23892e-08
2.891e-08
3.27955e-08
2.80936e-08
3.27502e-08
2.78618e-08
3.21101e-08
2.77893e-08
3.25843e-08
2.8203e-08
3.14718e-08
2.7833e-08
3.01146e-08
2.36662e-08
3.69038e-08
1.97389e-09
7.47833e-07
2.55604e-08
2.9475e-08
2.87174e-08
3.15493e-08
2.75217e-08
3.06627e-08
2.84089e-08
3.17189e-08
2.71873e-08
3.22018e-08
2.77201e-08
3.19131e-08
2.77179e-08
3.26847e-08
2.736e-08
3.25057e-08
2.78292e-08
3.24197e-08
2.74685e-08
3.25534e-08
2.71426e-08
3.17168e-08
2.68655e-08
3.098e-08
2.65626e-08
3.12672e-08
2.46312e-08
3.66905e-08
2.12973e-09
7.30108e-07
3.13153e-08
2.74032e-08
2.89697e-08
2.56596e-08
3.28414e-08
2.6486e-08
3.2583e-08
2.77732e-08
3.34875e-08
2.79501e-08
3.24557e-08
2.76298e-08
3.15526e-08
2.83408e-08
3.25428e-08
2.84883e-08
3.36856e-08
2.89107e-08
3.27003e-08
2.79904e-08
3.25605e-08
2.81387e-08
3.24277e-08
2.8043e-08
3.11975e-08
2.54419e-08
3.04733e-08
2.40345e-08
3.62452e-08
2.10622e-09
7.36202e-07
2.48596e-08
2.93785e-08
2.53646e-08
3.1652e-08
2.79878e-08
3.05337e-08
2.83659e-08
3.11351e-08
2.79766e-08
3.1363e-08
2.7912e-08
3.17917e-08
2.72067e-08
3.1859e-08
2.78717e-08
3.27954e-08
2.77849e-08
3.30251e-08
2.76685e-08
3.25032e-08
2.70023e-08
3.23634e-08
2.69458e-08
3.21414e-08
2.68693e-08
3.13442e-08
2.69852e-08
3.12471e-08
2.49371e-08
3.71798e-08
2.20196e-09
7.23688e-07
3.05837e-08
2.48972e-08
3.02932e-08
2.67586e-08
3.27838e-08
2.65577e-08
3.26296e-08
2.82086e-08
3.2947e-08
2.79477e-08
3.22928e-08
2.74579e-08
3.20941e-08
2.82827e-08
3.18461e-08
2.82282e-08
3.25234e-08
2.85103e-08
3.31084e-08
2.94595e-08
3.26836e-08
2.84949e-08
3.25663e-08
2.83303e-08
3.26563e-08
2.80589e-08
3.13465e-08
2.54337e-08
3.0805e-08
2.35504e-08
3.68858e-08
2.35432e-09
7.2747e-07
2.40359e-08
3.01786e-08
2.5783e-08
3.07074e-08
2.77509e-08
3.00223e-08
2.83419e-08
3.07325e-08
2.80853e-08
3.16295e-08
2.79604e-08
3.1783e-08
2.73928e-08
3.1491e-08
2.7478e-08
3.20162e-08
2.81485e-08
3.27847e-08
2.74396e-08
3.26661e-08
2.73535e-08
3.26203e-08
2.77087e-08
3.25219e-08
2.72632e-08
3.21833e-08
2.72097e-08
3.15545e-08
2.66995e-08
3.17778e-08
2.49719e-08
3.55983e-08
2.59613e-09
7.17387e-07
3.02665e-08
2.42583e-08
3.07237e-08
2.61331e-08
3.2915e-08
2.71176e-08
3.22442e-08
2.83936e-08
3.31109e-08
2.80585e-08
3.26256e-08
2.75484e-08
3.20882e-08
2.78363e-08
3.21072e-08
2.80839e-08
3.19366e-08
2.81978e-08
3.20945e-08
2.94668e-08
3.27245e-08
2.92233e-08
3.25273e-08
2.76831e-08
3.22205e-08
2.8767e-08
3.19747e-08
2.77891e-08
3.13764e-08
2.58785e-08
3.12374e-08
2.36321e-08
3.48123e-08
2.07279e-09
7.16863e-07
2.39537e-08
2.94512e-08
2.54214e-08
3.011e-08
2.79449e-08
2.98674e-08
2.81692e-08
3.07676e-08
2.82181e-08
3.11208e-08
2.86371e-08
3.1672e-08
2.7708e-08
3.1316e-08
2.75409e-08
3.09569e-08
2.74812e-08
3.19517e-08
2.79724e-08
3.28381e-08
2.76775e-08
3.28636e-08
2.77519e-08
3.22927e-08
2.79919e-08
3.27731e-08
2.7274e-08
3.21938e-08
2.74771e-08
3.1146e-08
2.61763e-08
3.1419e-08
2.5472e-08
3.91134e-08
2.03263e-09
7.14014e-07
3.02396e-08
2.55371e-08
2.9272e-08
2.58241e-08
3.26402e-08
2.70291e-08
3.21367e-08
2.89138e-08
3.27004e-08
2.87368e-08
3.29625e-08
2.80335e-08
3.27161e-08
2.79252e-08
3.23031e-08
2.77431e-08
3.22079e-08
2.82598e-08
3.17356e-08
2.84248e-08
3.21442e-08
2.8805e-08
3.26656e-08
3.00401e-08
3.29832e-08
2.84965e-08
3.26984e-08
2.83391e-08
3.17343e-08
2.79792e-08
3.11778e-08
2.5985e-08
3.16779e-08
2.3205e-08
4.08909e-08
2.24563e-09
7.12649e-07
2.4609e-08
2.88453e-08
2.76146e-08
3.02076e-08
2.78604e-08
3.00455e-08
2.8081e-08
3.09121e-08
2.82344e-08
3.13319e-08
2.81711e-08
3.15716e-08
2.82888e-08
3.16296e-08
2.76833e-08
3.08378e-08
2.77254e-08
3.11798e-08
2.77695e-08
3.20646e-08
2.81909e-08
3.2507e-08
2.79368e-08
3.30713e-08
2.74642e-08
3.28048e-08
2.76688e-08
3.24973e-08
2.72967e-08
3.20275e-08
2.71899e-08
3.18039e-08
2.54309e-08
3.11479e-08
2.34972e-08
3.8808e-08
2.3902e-09
7.001e-07
3.00471e-08
2.55726e-08
2.70976e-08
2.48014e-08
3.23286e-08
2.73835e-08
3.16221e-08
2.89697e-08
3.26843e-08
2.86148e-08
3.32386e-08
2.86861e-08
3.31481e-08
2.83307e-08
3.28705e-08
2.86175e-08
3.20008e-08
2.75898e-08
3.18962e-08
2.81172e-08
3.18341e-08
2.89326e-08
3.26658e-08
2.97429e-08
3.32497e-08
2.93352e-08
3.29681e-08
2.85677e-08
3.23393e-08
2.8294e-08
3.1817e-08
2.80834e-08
3.20097e-08
2.62761e-08
3.10339e-08
2.36496e-08
3.769e-08
2.70332e-09
7.01085e-07
2.50154e-08
2.91544e-08
2.47515e-08
3.00116e-08
2.79747e-08
3.03054e-08
2.79451e-08
3.11977e-08
2.79069e-08
3.14069e-08
2.78201e-08
3.16149e-08
2.81409e-08
3.15263e-08
2.79395e-08
3.11825e-08
2.7997e-08
3.09083e-08
2.78084e-08
3.10849e-08
2.751e-08
3.20028e-08
2.74399e-08
3.2873e-08
2.73562e-08
3.3235e-08
2.77825e-08
3.30116e-08
2.8515e-08
3.21051e-08
2.73885e-08
3.17525e-08
2.711e-08
3.16425e-08
2.59418e-08
3.17075e-08
2.43986e-08
3.59861e-08
2.12537e-09
6.90705e-07
3.00334e-08
2.50404e-08
2.99834e-08
2.6455e-08
3.25415e-08
2.75278e-08
3.16165e-08
2.9212e-08
3.24886e-08
2.9052e-08
3.26749e-08
2.85807e-08
3.27853e-08
2.85641e-08
3.2877e-08
2.84472e-08
3.21838e-08
2.88882e-08
3.15758e-08
2.72932e-08
3.23757e-08
2.89542e-08
3.19224e-08
2.9399e-08
3.21088e-08
2.95589e-08
3.3352e-08
2.92974e-08
3.28538e-08
2.877e-08
3.27781e-08
2.84951e-08
3.22071e-08
2.82062e-08
3.1493e-08
2.60641e-08
3.21364e-08
2.41668e-08
4.04351e-08
2.14399e-09
6.96189e-07
2.53227e-08
2.94681e-08
2.49639e-08
2.94723e-08
2.79412e-08
3.04312e-08
2.75759e-08
3.13092e-08
2.79529e-08
3.11933e-08
2.77256e-08
3.13696e-08
2.82087e-08
3.18934e-08
2.7877e-08
3.12168e-08
2.81823e-08
3.10993e-08
2.78771e-08
3.09327e-08
2.78899e-08
3.14163e-08
2.72699e-08
3.21412e-08
2.79808e-08
3.3018e-08
2.82063e-08
3.2774e-08
2.84627e-08
3.24507e-08
2.81067e-08
3.23476e-08
2.78892e-08
3.18732e-08
2.68992e-08
3.2302e-08
2.576e-08
3.20445e-08
2.37971e-08
4.22628e-08
2.34609e-09
6.84285e-07
3.07286e-08
2.49907e-08
2.85725e-08
2.69308e-08
3.2399e-08
2.78426e-08
3.15227e-08
2.90921e-08
3.15469e-08
2.87256e-08
3.24106e-08
2.82277e-08
3.19866e-08
2.83624e-08
3.26111e-08
2.83349e-08
3.25305e-08
2.82642e-08
3.14367e-08
2.92905e-08
3.17251e-08
2.7456e-08
3.14688e-08
2.95104e-08
3.15567e-08
2.94369e-08
3.28853e-08
2.95697e-08
3.33739e-08
2.90244e-08
3.28979e-08
2.80182e-08
3.29054e-08
2.82724e-08
3.23644e-08
2.81742e-08
3.15119e-08
2.63807e-08
3.1379e-08
2.3013e-08
3.95325e-08
2.4776e-09
6.87283e-07
2.58772e-08
3.02311e-08
2.69159e-08
2.96747e-08
2.7455e-08
3.05165e-08
2.77108e-08
3.12393e-08
2.80059e-08
3.13997e-08
2.74579e-08
3.17021e-08
2.80324e-08
3.07491e-08
2.81552e-08
3.14194e-08
2.76883e-08
3.12321e-08
2.82596e-08
3.08689e-08
2.80755e-08
3.06405e-08
2.8234e-08
3.07367e-08
2.73994e-08
3.20764e-08
2.80689e-08
3.31474e-08
2.85463e-08
3.33808e-08
2.80695e-08
3.30598e-08
2.87756e-08
3.23978e-08
2.83111e-08
3.20369e-08
2.703e-08
3.20661e-08
2.55388e-08
3.18696e-08
2.40218e-08
3.88028e-08
2.60406e-09
6.79931e-07
3.04975e-08
2.59261e-08
2.84872e-08
2.59561e-08
3.13624e-08
2.77606e-08
3.13337e-08
2.88501e-08
3.16921e-08
2.84744e-08
3.22892e-08
2.86955e-08
3.18842e-08
2.82057e-08
3.19468e-08
2.88046e-08
3.25693e-08
2.9157e-08
3.18466e-08
3.00157e-08
3.09427e-08
2.93422e-08
3.18618e-08
2.80304e-08
3.12504e-08
2.89738e-08
3.16837e-08
2.97206e-08
3.23203e-08
2.92587e-08
3.27463e-08
2.88998e-08
3.28044e-08
2.94235e-08
3.24173e-08
2.91861e-08
3.17908e-08
2.85314e-08
3.16006e-08
2.69365e-08
3.11963e-08
2.37622e-08
3.6968e-08
2.82189e-09
6.79999e-07
2.58924e-08
3.01657e-08
2.54226e-08
2.97745e-08
2.74568e-08
3.10153e-08
2.82615e-08
3.1532e-08
2.71959e-08
3.11691e-08
2.77817e-08
3.13095e-08
2.83303e-08
3.1326e-08
2.72189e-08
3.13311e-08
2.86491e-08
3.10314e-08
2.78077e-08
3.11159e-08
2.79454e-08
3.08699e-08
2.80736e-08
3.06996e-08
2.80785e-08
3.0997e-08
2.76071e-08
3.18186e-08
2.86423e-08
3.35345e-08
2.9014e-08
3.24489e-08
2.9102e-08
3.24593e-08
2.97344e-08
3.23612e-08
2.83684e-08
3.20125e-08
2.66168e-08
3.24816e-08
2.54679e-08
3.23283e-08
2.45105e-08
3.7146e-08
2.2862e-09
6.73806e-07
3.02016e-08
2.68855e-08
2.94121e-08
2.64191e-08
3.11701e-08
2.80973e-08
3.13349e-08
2.88043e-08
3.23953e-08
2.88057e-08
3.14911e-08
2.94223e-08
3.1434e-08
2.74285e-08
3.1529e-08
2.91842e-08
3.19465e-08
2.98201e-08
3.16879e-08
2.99832e-08
3.13497e-08
2.98879e-08
3.12571e-08
2.90241e-08
3.19121e-08
2.82612e-08
3.14618e-08
2.91321e-08
3.17856e-08
2.97797e-08
3.22498e-08
2.99137e-08
3.31719e-08
2.96363e-08
3.21949e-08
2.98079e-08
3.19074e-08
2.84185e-08
3.16226e-08
2.81716e-08
3.17882e-08
2.65357e-08
3.19688e-08
2.45931e-08
4.09519e-08
2.33808e-09
6.71931e-07
2.5575e-08
2.96473e-08
2.58818e-08
2.93052e-08
2.71731e-08
3.06934e-08
2.80499e-08
3.07782e-08
2.78299e-08
3.13002e-08
2.78692e-08
3.07655e-08
2.88047e-08
3.06849e-08
2.90461e-08
3.10735e-08
2.80574e-08
3.14341e-08
2.84032e-08
3.16246e-08
2.8835e-08
3.11724e-08
2.82649e-08
3.07707e-08
2.82179e-08
3.0559e-08
2.84595e-08
3.07623e-08
2.77102e-08
3.19766e-08
2.83509e-08
3.31584e-08
2.80095e-08
3.31134e-08
2.97131e-08
3.20327e-08
2.96502e-08
3.21897e-08
2.80155e-08
3.21777e-08
2.66124e-08
3.27858e-08
2.60723e-08
3.13348e-08
2.33743e-08
4.16943e-08
2.62919e-09
6.64718e-07
3.00458e-08
2.5928e-08
2.87319e-08
2.58658e-08
3.07708e-08
2.81394e-08
3.14252e-08
2.8768e-08
3.11193e-08
2.91097e-08
3.18697e-08
2.85453e-08
3.16399e-08
2.78853e-08
3.13771e-08
2.85877e-08
3.12733e-08
2.89631e-08
3.21176e-08
2.91727e-08
3.1726e-08
2.95323e-08
3.14368e-08
2.96881e-08
3.11583e-08
2.90205e-08
3.17395e-08
2.85071e-08
3.14443e-08
2.9014e-08
3.16704e-08
2.97148e-08
3.21682e-08
3.0174e-08
3.32482e-08
2.97726e-08
3.18432e-08
2.94787e-08
3.22577e-08
2.81747e-08
3.22698e-08
2.84601e-08
3.1995e-08
2.69125e-08
3.21499e-08
2.36805e-08
3.86138e-08
2.71991e-09
6.65077e-07
2.49667e-08
2.98622e-08
2.61488e-08
2.91113e-08
2.72363e-08
3.07064e-08
2.81139e-08
3.0585e-08
2.79405e-08
3.1309e-08
2.76396e-08
3.15295e-08
2.83404e-08
3.10185e-08
2.87863e-08
3.10752e-08
2.88197e-08
3.18097e-08
2.82461e-08
3.12644e-08
2.89855e-08
3.12269e-08
2.85169e-08
3.11923e-08
2.81144e-08
3.07819e-08
2.85263e-08
3.04888e-08
2.82145e-08
3.0851e-08
2.77571e-08
3.17669e-08
2.84159e-08
3.31353e-08
2.9131e-08
3.28221e-08
2.99558e-08
3.17861e-08
2.92957e-08
3.26379e-08
2.7985e-08
3.27338e-08
2.65541e-08
3.29367e-08
2.58177e-08
3.19501e-08
2.43052e-08
3.75924e-08
2.89905e-09
6.61868e-07
3.05875e-08
2.52964e-08
2.80091e-08
2.56392e-08
3.09478e-08
2.81902e-08
3.11833e-08
2.87828e-08
3.1029e-08
2.85295e-08
3.1515e-08
2.82346e-08
3.18455e-08
2.86303e-08
3.19182e-08
2.90177e-08
3.08609e-08
2.87562e-08
3.13016e-08
2.92464e-08
3.20055e-08
3.02302e-08
3.14662e-08
2.97767e-08
3.16436e-08
2.96997e-08
3.10671e-08
2.90343e-08
3.08897e-08
2.84075e-08
3.17591e-08
2.89886e-08
3.17925e-08
2.94426e-08
3.23949e-08
3.0896e-08
3.26221e-08
3.02796e-08
3.19535e-08
2.91901e-08
3.27087e-08
2.84304e-08
3.21662e-08
2.84155e-08
3.20967e-08
2.62806e-08
3.19432e-08
2.43139e-08
3.62161e-08
2.62997e-09
6.58828e-07
2.58803e-08
2.95362e-08
2.72277e-08
2.90988e-08
2.72715e-08
3.02396e-08
2.78646e-08
3.05787e-08
2.80974e-08
3.11228e-08
2.78834e-08
3.13373e-08
2.81086e-08
3.14368e-08
2.87386e-08
3.12218e-08
2.88209e-08
3.09841e-08
2.95638e-08
3.16303e-08
2.81031e-08
3.14193e-08
2.95595e-08
3.12643e-08
2.836e-08
3.11811e-08
2.82414e-08
3.09434e-08
2.84356e-08
3.06482e-08
2.84542e-08
3.10277e-08
2.78544e-08
3.14184e-08
2.98863e-08
3.24922e-08
2.93738e-08
3.26164e-08
2.99197e-08
3.18379e-08
2.89574e-08
3.29826e-08
2.81354e-08
3.24826e-08
2.70045e-08
3.19006e-08
2.64637e-08
3.26707e-08
2.4928e-08
3.89688e-08
2.68638e-09
6.53856e-07
2.95206e-08
2.5731e-08
2.7867e-08
2.54227e-08
3.0716e-08
2.7683e-08
3.1004e-08
2.87288e-08
3.10315e-08
2.81572e-08
3.10818e-08
2.84703e-08
3.2278e-08
2.87108e-08
3.159e-08
2.88575e-08
3.18339e-08
2.99924e-08
3.13702e-08
2.92988e-08
3.14728e-08
2.90502e-08
3.14963e-08
2.89528e-08
3.18958e-08
2.99673e-08
3.15876e-08
2.95489e-08
3.11671e-08
2.93227e-08
3.10358e-08
2.83763e-08
3.18066e-08
2.88489e-08
3.22677e-08
2.98843e-08
3.26284e-08
3.12214e-08
3.23439e-08
2.9681e-08
3.22714e-08
2.89207e-08
3.311e-08
2.88673e-08
3.18579e-08
2.8277e-08
3.16219e-08
2.55186e-08
3.22428e-08
2.41391e-08
4.01245e-08
2.83641e-09
6.54716e-07
2.5661e-08
2.92078e-08
2.66991e-08
2.85584e-08
2.70859e-08
2.99217e-08
2.79241e-08
3.06209e-08
2.81663e-08
3.07428e-08
2.87772e-08
3.1269e-08
2.78153e-08
3.12997e-08
2.86215e-08
3.14533e-08
2.90504e-08
3.12813e-08
2.87475e-08
3.08954e-08
2.9337e-08
3.14709e-08
2.85039e-08
3.15523e-08
2.87863e-08
3.14637e-08
2.82607e-08
3.12507e-08
2.84784e-08
3.07105e-08
2.80375e-08
3.04219e-08
2.82826e-08
3.13163e-08
2.81533e-08
3.15936e-08
2.95105e-08
3.22252e-08
2.99584e-08
3.22291e-08
2.9627e-08
3.25558e-08
2.88264e-08
3.29528e-08
2.82229e-08
3.19221e-08
2.72034e-08
3.32408e-08
2.59846e-08
3.26023e-08
2.39297e-08
3.85582e-08
2.85884e-09
6.50006e-07
2.94637e-08
2.65702e-08
2.80753e-08
2.52628e-08
3.08765e-08
2.77953e-08
3.08979e-08
2.87206e-08
3.10785e-08
2.82761e-08
3.12252e-08
2.8558e-08
3.15026e-08
2.87377e-08
3.18157e-08
2.87912e-08
3.11904e-08
2.88575e-08
3.14299e-08
2.92954e-08
3.11371e-08
2.88679e-08
3.12451e-08
2.97018e-08
3.12681e-08
2.91355e-08
3.17439e-08
3.01238e-08
3.12811e-08
2.96221e-08
3.11502e-08
2.96016e-08
3.06964e-08
2.82715e-08
3.15339e-08
2.94285e-08
3.18821e-08
3.05861e-08
3.25257e-08
3.0295e-08
3.22328e-08
2.93295e-08
3.28615e-08
2.90295e-08
3.27002e-08
2.86631e-08
3.19434e-08
2.75717e-08
3.2563e-08
2.57357e-08
3.21819e-08
2.45866e-08
3.86572e-08
2.93505e-09
6.47558e-07
2.66412e-08
2.85567e-08
2.57701e-08
2.85263e-08
2.70487e-08
2.98176e-08
2.77648e-08
3.03354e-08
2.80238e-08
3.05649e-08
2.80757e-08
3.08589e-08
2.81353e-08
3.14502e-08
2.81767e-08
3.11914e-08
2.85612e-08
3.15165e-08
2.89315e-08
3.0687e-08
2.91318e-08
3.14504e-08
2.92077e-08
3.10295e-08
2.90417e-08
3.13064e-08
2.95258e-08
3.15478e-08
2.84234e-08
3.07583e-08
2.83324e-08
3.07937e-08
2.86019e-08
3.11658e-08
2.81849e-08
3.1264e-08
2.86927e-08
3.18888e-08
2.97055e-08
3.20729e-08
3.02918e-08
3.28339e-08
2.93314e-08
3.31767e-08
2.87691e-08
3.2943e-08
2.83425e-08
3.16498e-08
2.73792e-08
3.31089e-08
2.62698e-08
3.22592e-08
2.42555e-08
3.83484e-08
3.16312e-09
6.40113e-07
2.8164e-08
2.61295e-08
2.78875e-08
2.51163e-08
3.03331e-08
2.76181e-08
3.05194e-08
2.87113e-08
3.1228e-08
2.7955e-08
3.17354e-08
2.83239e-08
3.13437e-08
2.8476e-08
3.2104e-08
2.89623e-08
3.16924e-08
2.89623e-08
3.07357e-08
2.91734e-08
3.11733e-08
2.87237e-08
3.15068e-08
2.93751e-08
3.07649e-08
2.99313e-08
3.2023e-08
2.88609e-08
3.16161e-08
2.9825e-08
3.13928e-08
2.97307e-08
3.11458e-08
2.89731e-08
3.07559e-08
2.86138e-08
3.1735e-08
2.91289e-08
3.1892e-08
2.9428e-08
3.26937e-08
2.96127e-08
3.26372e-08
2.92888e-08
3.34406e-08
2.86481e-08
3.28265e-08
2.85737e-08
3.15459e-08
2.75222e-08
3.19443e-08
2.5816e-08
3.20465e-08
2.44057e-08
3.68102e-08
3.29618e-09
6.41906e-07
2.55745e-08
2.9448e-08
2.52254e-08
2.85044e-08
2.71178e-08
3.00029e-08
2.78261e-08
2.97849e-08
2.83758e-08
3.01226e-08
2.78503e-08
3.11765e-08
2.78345e-08
3.08627e-08
2.80089e-08
3.08855e-08
2.84342e-08
3.11956e-08
2.85442e-08
3.14968e-08
2.86259e-08
3.13655e-08
2.90907e-08
3.09352e-08
2.96858e-08
3.00023e-08
2.91525e-08
3.14157e-08
2.88094e-08
3.11586e-08
2.81635e-08
3.09916e-08
2.82358e-08
3.07432e-08
2.82668e-08
3.08754e-08
2.82535e-08
3.14352e-08
2.84386e-08
3.20874e-08
2.97826e-08
3.27373e-08
3.01576e-08
3.25217e-08
2.93199e-08
3.32062e-08
2.85583e-08
3.3029e-08
2.81716e-08
3.1849e-08
2.76206e-08
3.27457e-08
2.64975e-08
3.20518e-08
2.47717e-08
3.5623e-08
3.49072e-09
6.32327e-07
2.97941e-08
2.63339e-08
2.80897e-08
2.56302e-08
3.06432e-08
2.7839e-08
3.02129e-08
2.84474e-08
3.10959e-08
2.75815e-08
3.1399e-08
2.83177e-08
3.2281e-08
2.84543e-08
3.13452e-08
2.86434e-08
3.17023e-08
2.86775e-08
3.11036e-08
2.84539e-08
3.14384e-08
2.8779e-08
3.10275e-08
2.86012e-08
3.12351e-08
2.95772e-08
3.12459e-08
2.94718e-08
3.16573e-08
2.91022e-08
3.15001e-08
3.01093e-08
3.14249e-08
2.93041e-08
3.08315e-08
2.91338e-08
3.06755e-08
2.88045e-08
3.16768e-08
2.94824e-08
3.19436e-08
2.92876e-08
3.28256e-08
2.9875e-08
3.33738e-08
2.93547e-08
3.36241e-08
2.85714e-08
3.26783e-08
2.83969e-08
3.17107e-08
2.7331e-08
3.23535e-08
2.64645e-08
3.23857e-08
2.47894e-08
3.50974e-08
3.02008e-09
6.28575e-07
2.58663e-08
2.90085e-08
2.58707e-08
2.84599e-08
2.71912e-08
2.98386e-08
2.75702e-08
2.93108e-08
2.83892e-08
2.96043e-08
2.81665e-08
3.01793e-08
2.7867e-08
3.08636e-08
2.79004e-08
3.11012e-08
2.8231e-08
3.13141e-08
2.85337e-08
3.07406e-08
2.82679e-08
3.11583e-08
2.87139e-08
3.04543e-08
2.93104e-08
3.11539e-08
2.97409e-08
3.05707e-08
2.92161e-08
3.12399e-08
2.9054e-08
3.14572e-08
2.83751e-08
3.12428e-08
2.80059e-08
3.08405e-08
2.79731e-08
3.10526e-08
2.85124e-08
3.15985e-08
2.93131e-08
3.18659e-08
3.00449e-08
3.27471e-08
2.97576e-08
3.32139e-08
2.91567e-08
3.33636e-08
2.84505e-08
3.28558e-08
2.85666e-08
3.18688e-08
2.788e-08
3.21774e-08
2.64866e-08
3.19755e-08
2.46751e-08
3.88329e-08
3.0289e-09
6.26083e-07
2.88492e-08
2.66927e-08
2.72423e-08
2.55115e-08
3.05031e-08
2.76577e-08
3.01183e-08
2.81926e-08
3.11889e-08
2.76113e-08
3.14307e-08
2.77368e-08
3.16976e-08
2.8386e-08
3.17077e-08
2.79495e-08
3.11282e-08
2.85171e-08
3.16226e-08
2.85693e-08
3.20044e-08
2.87818e-08
3.13011e-08
2.87892e-08
3.14241e-08
2.91204e-08
3.05973e-08
2.93428e-08
3.1291e-08
2.90621e-08
3.16141e-08
3.00927e-08
3.12974e-08
3.05547e-08
3.11739e-08
3.00766e-08
3.10775e-08
3.00455e-08
3.02788e-08
2.86586e-08
3.20144e-08
2.95117e-08
3.21535e-08
2.94719e-08
3.2766e-08
2.98331e-08
3.31392e-08
2.92395e-08
3.34071e-08
2.90839e-08
3.25642e-08
2.90192e-08
3.2123e-08
2.78676e-08
3.23151e-08
2.67197e-08
3.20749e-08
2.41537e-08
3.95146e-08
3.29261e-09
6.2498e-07
2.67324e-08
2.92476e-08
2.59513e-08
2.87452e-08
2.70313e-08
2.94881e-08
2.75822e-08
2.91878e-08
2.80158e-08
2.94099e-08
2.79885e-08
3.0068e-08
2.82471e-08
3.05273e-08
2.77915e-08
3.13761e-08
2.8753e-08
3.08427e-08
2.81841e-08
3.18012e-08
2.89062e-08
3.03758e-08
2.83742e-08
3.13242e-08
2.854e-08
3.08308e-08
2.88991e-08
3.11794e-08
2.95503e-08
3.02818e-08
2.93672e-08
3.16935e-08
2.90055e-08
3.09335e-08
2.85531e-08
3.07465e-08
2.82501e-08
3.07943e-08
2.82376e-08
3.0759e-08
2.88089e-08
3.16838e-08
2.88278e-08
3.22459e-08
2.9734e-08
3.26935e-08
3.02876e-08
3.34197e-08
2.91148e-08
3.33261e-08
2.92164e-08
3.23399e-08
2.88583e-08
3.21055e-08
2.79609e-08
3.2369e-08
2.63824e-08
3.18222e-08
2.39641e-08
3.79e-08
3.40599e-09
6.18303e-07
2.87634e-08
2.6394e-08
2.7827e-08
2.55208e-08
3.01612e-08
2.74239e-08
3.00903e-08
2.8135e-08
3.0729e-08
2.77624e-08
3.15961e-08
2.77054e-08
3.20569e-08
2.82199e-08
3.19535e-08
2.84271e-08
3.16155e-08
2.88721e-08
3.13629e-08
2.83441e-08
3.16105e-08
2.90699e-08
3.21511e-08
2.88703e-08
3.15715e-08
2.90703e-08
3.11039e-08
2.89053e-08
3.12285e-08
2.92891e-08
3.07774e-08
2.94428e-08
3.10325e-08
3.04707e-08
3.07885e-08
3.09554e-08
3.06913e-08
2.99999e-08
3.0851e-08
2.93727e-08
3.06225e-08
2.89423e-08
3.16012e-08
3.02429e-08
3.2275e-08
2.96304e-08
3.27084e-08
3.05418e-08
3.36381e-08
2.9118e-08
3.33686e-08
2.96051e-08
3.21626e-08
2.93279e-08
3.19859e-08
2.78601e-08
3.2003e-08
2.6534e-08
3.20628e-08
2.44796e-08
3.65578e-08
3.7003e-09
6.14037e-07
2.70835e-08
2.94548e-08
2.55977e-08
2.86149e-08
2.68968e-08
2.94557e-08
2.78745e-08
2.93937e-08
2.80877e-08
2.90068e-08
2.81193e-08
3.04798e-08
2.79462e-08
2.91085e-08
2.78854e-08
3.0624e-08
2.76011e-08
3.06921e-08
2.84432e-08
3.11496e-08
2.87376e-08
3.16017e-08
2.87571e-08
3.08925e-08
2.86286e-08
3.16111e-08
2.89128e-08
3.10959e-08
2.89865e-08
3.12099e-08
2.95025e-08
3.10497e-08
2.88005e-08
3.11368e-08
2.92511e-08
3.07851e-08
2.88066e-08
3.10983e-08
2.82461e-08
3.06813e-08
2.83111e-08
3.06927e-08
2.90386e-08
3.18713e-08
2.89537e-08
3.22414e-08
3.03702e-08
3.25669e-08
3.03351e-08
3.31092e-08
2.92805e-08
3.30391e-08
2.98636e-08
3.19811e-08
2.90308e-08
3.20322e-08
2.77831e-08
3.23403e-08
2.61421e-08
3.19257e-08
2.4597e-08
3.60865e-08
3.14768e-09
6.09267e-07
2.89842e-08
2.57535e-08
2.77766e-08
2.55281e-08
2.9739e-08
2.71104e-08
3.01176e-08
2.79969e-08
3.02907e-08
2.79657e-08
3.11497e-08
2.76947e-08
3.15742e-08
2.76166e-08
3.18002e-08
2.75711e-08
3.18851e-08
2.85322e-08
3.16056e-08
2.80502e-08
3.16267e-08
2.8599e-08
3.17843e-08
2.96634e-08
3.15971e-08
2.92376e-08
3.15441e-08
2.89248e-08
3.15026e-08
2.84354e-08
3.16221e-08
2.90169e-08
3.10465e-08
2.9445e-08
3.15185e-08
3.05574e-08
3.08087e-08
3.03807e-08
3.10046e-08
2.95302e-08
3.08481e-08
2.9509e-08
3.07327e-08
2.87727e-08
3.16875e-08
2.96907e-08
3.2596e-08
3.00803e-08
3.26531e-08
3.00941e-08
3.36155e-08
2.99315e-08
3.29395e-08
3.02463e-08
3.17282e-08
2.90952e-08
3.16137e-08
2.75053e-08
3.27034e-08
2.61773e-08
3.2156e-08
2.48584e-08
3.99357e-08
3.10179e-09
6.09282e-07
2.69647e-08
3.02655e-08
2.55722e-08
2.87831e-08
2.70623e-08
2.94283e-08
2.80746e-08
2.95979e-08
2.83373e-08
2.913e-08
2.76659e-08
3.02195e-08
2.84308e-08
3.05947e-08
2.80693e-08
3.00009e-08
2.77805e-08
3.04777e-08
2.86907e-08
3.0794e-08
2.83864e-08
3.10339e-08
2.89039e-08
3.11489e-08
2.88796e-08
3.11757e-08
2.89983e-08
3.12104e-08
2.88847e-08
3.1184e-08
2.89228e-08
3.13535e-08
2.92943e-08
3.08978e-08
2.90926e-08
3.10591e-08
2.94131e-08
3.09089e-08
2.8925e-08
3.06742e-08
2.82971e-08
3.08606e-08
2.86216e-08
3.0688e-08
2.91779e-08
3.16258e-08
2.9232e-08
3.20668e-08
3.0251e-08
3.24467e-08
3.01005e-08
3.34654e-08
3.0295e-08
3.26454e-08
3.00628e-08
3.18009e-08
2.88124e-08
3.25412e-08
2.77486e-08
3.22399e-08
2.63974e-08
3.19027e-08
2.35822e-08
4.16456e-08
3.34988e-09
6.009e-07
2.90587e-08
2.58514e-08
2.73648e-08
2.56091e-08
2.94319e-08
2.69707e-08
2.99875e-08
2.79735e-08
3.02152e-08
2.77352e-08
3.03774e-08
2.74883e-08
3.00183e-08
2.82546e-08
3.04938e-08
2.83967e-08
3.18844e-08
2.80382e-08
3.11864e-08
2.87004e-08
3.1509e-08
2.88351e-08
3.1476e-08
2.92686e-08
3.19362e-08
2.93009e-08
3.18611e-08
2.91269e-08
3.15982e-08
2.89633e-08
3.18441e-08
2.88123e-08
3.15269e-08
2.89003e-08
3.13615e-08
2.97924e-08
3.16441e-08
3.01058e-08
3.08751e-08
3.04442e-08
3.09092e-08
2.98502e-08
3.09785e-08
2.95371e-08
3.05743e-08
2.89132e-08
3.13565e-08
2.98384e-08
3.28021e-08
3.01412e-08
3.25489e-08
3.03897e-08
3.3449e-08
3.01452e-08
3.2488e-08
3.01214e-08
3.16547e-08
2.86815e-08
3.17394e-08
2.76214e-08
3.24877e-08
2.62584e-08
3.21846e-08
2.37314e-08
3.9813e-08
3.39484e-09
6.03622e-07
2.70023e-08
3.00344e-08
2.56668e-08
2.85706e-08
2.70602e-08
2.91565e-08
2.81151e-08
2.96503e-08
2.84045e-08
2.9297e-08
2.72134e-08
2.9805e-08
2.8698e-08
2.94765e-08
2.88203e-08
2.9929e-08
2.76717e-08
2.95884e-08
2.85482e-08
3.05254e-08
2.90677e-08
3.03224e-08
2.88994e-08
3.12699e-08
2.89948e-08
3.11642e-08
2.90267e-08
3.10301e-08
2.92484e-08
3.10964e-08
2.91337e-08
3.12663e-08
2.9384e-08
3.11195e-08
2.93411e-08
3.09326e-08
2.94851e-08
3.09088e-08
2.98725e-08
3.0882e-08
2.88448e-08
3.12568e-08
2.81005e-08
3.07615e-08
2.80787e-08
3.04987e-08
2.90111e-08
3.13246e-08
2.92072e-08
3.21784e-08
3.03589e-08
3.2735e-08
3.02168e-08
3.32253e-08
3.05953e-08
3.23002e-08
3.00332e-08
3.1513e-08
2.86182e-08
3.24457e-08
2.76571e-08
3.27333e-08
2.59739e-08
3.16954e-08
2.43558e-08
3.95103e-08
3.62805e-09
5.96966e-07
2.92118e-08
2.61536e-08
2.69733e-08
2.5483e-08
2.89544e-08
2.67501e-08
3.01395e-08
2.80298e-08
3.0069e-08
2.76696e-08
3.01932e-08
2.84393e-08
3.03586e-08
2.78043e-08
3.01124e-08
2.85315e-08
3.05094e-08
2.7974e-08
3.17503e-08
2.83826e-08
3.02931e-08
2.92184e-08
3.11261e-08
2.91022e-08
3.11097e-08
2.97509e-08
3.14107e-08
2.94108e-08
3.15295e-08
2.9317e-08
3.13132e-08
2.88985e-08
3.21862e-08
2.87114e-08
3.13723e-08
2.92744e-08
3.16207e-08
3.00591e-08
3.1251e-08
3.00848e-08
3.05803e-08
3.05182e-08
3.08188e-08
2.98376e-08
3.09974e-08
2.95367e-08
3.06434e-08
2.90412e-08
3.16861e-08
3.03995e-08
3.21035e-08
3.0516e-08
3.29116e-08
3.09967e-08
3.35547e-08
3.04693e-08
3.23242e-08
2.98933e-08
3.14321e-08
2.86512e-08
3.23583e-08
2.71614e-08
3.27317e-08
2.68521e-08
3.20537e-08
2.4195e-08
3.70015e-08
3.81752e-09
5.938e-07
2.71968e-08
3.00258e-08
2.59512e-08
2.82169e-08
2.68121e-08
2.91965e-08
2.82355e-08
2.94216e-08
2.83886e-08
2.9532e-08
2.73019e-08
2.97188e-08
2.71655e-08
3.01387e-08
2.79936e-08
2.95223e-08
2.81092e-08
3.05133e-08
2.8297e-08
2.98295e-08
2.87349e-08
3.07405e-08
2.9059e-08
3.06088e-08
2.8726e-08
3.09446e-08
2.91936e-08
3.13033e-08
2.9049e-08
3.12338e-08
2.96219e-08
3.08941e-08
2.93649e-08