/*--------------------------------*- C++ -*----------------------------------*\
| =========                 |                                                 |
| \\      /  F ield         | OpenFOAM: The Open Source CFD Toolbox           |
|  \\    /   O peration     | Version:  2206                                  |
|   \\  /    A nd           | Website:  www.openfoam.com                      |
|    \\/     M anipulation  |                                                 |
\*---------------------------------------------------------------------------*/
FoamFile
{
    version     2.0;
    format      ascii;
    arch        "LSB;label=32;scalar=64";
    class       volScalarField;
    location    "210";
    object      ducSensor;
}
// * * * * * * * * * * * * * * * * * * * * * * * * * * * * * * * * * * * * * //

dimensions      [0 0 0 0 0 0 0];

internalField   nonuniform List<scalar> 
93840
(
0.488431
0
0.477978
0
0
0.49975
0
0.543402
0
0.504644
0.540222
0
0.450891
0
0.527227
0
0
0
0.0099607
0
0.552901
0
0.00101155
0
0
0.0198073
0
0.55317
0
0
0
0.431274
0
0.0191741
0
0.550982
0
0.00250561
0
0
0.354538
0
0.394778
0
0.557389
0.00455484
0
0
0.00228133
0
0.323098
0
0.406284
0
0.556858
0
0.0137133
0
0
0
0
0
0
0.416256
0
0.563853
0
0
0
0
0.000357694
0.00736652
0.0130755
0
0
0.395384
0
0.562292
0
0
0
0
0.00528774
0
0
0
0.0366379
0
0.400323
0
0.566379
4.97412e-05
0.00431312
0.0129019
0.0114416
0.000738407
0
0.0108107
0.0189042
0.0197279
0
0
0.390007
0
0.564965
0.00309207
0.0149945
0
0
0
0
0
0
0
0
0.0139447
0
0.391102
0
0.56741
0.00133535
0
0
0
0.0074521
0
0.0112491
0.0106355
0
0.0270979
0.0139015
0
0
0.385529
0
0.565548
0
0
0
0.00365516
0.00490715
0
0.00494442
0
0
0
0
0
0.0282092
0
0.387553
0
0.568181
0
0.00502422
0.0100867
0
0
0
0.00641101
0.000498361
0.0214255
0.000535602
0
0.00702854
0.0258335
0
0
0.382294
0
0.56634
0.00200937
0.00772599
0
0
0.00647966
0
0.00347352
0
0
0
0
0
0
0
0
0
0.384644
0
0.568558
0.013488
0
0.00743506
0
0.00270664
0
0.00551616
0
0
0
0.0108115
0.00685169
0
0
0.001737
0
0
0.378998
0
0.566864
0
0.0157313
0
0
0.00268329
0
8.70041e-05
0
0.0103182
0
0
0
0
0
0
0
0.0139437
0
0.379167
0
0.56821
0
0
0
0
0.00622042
0
0.0151613
0.00216207
0.0282733
0
0
0
0
0.0174326
0
0
0
0
0
0.373512
0
0.566877
0
0
0.0235253
0.0130934
0.00272023
0
0
0
0
0.0018546
0.00028958
0
0
0
0
0
0
0
0
0
0.373745
0
0.568134
0
0.00659873
0.0488708
0
0
0
0.0057004
0.000380276
0.0137816
0.00600498
0
0.0124165
0.00887662
0
0
0
0.00554154
0
0
0.0193199
0
0.367308
0
0.566382
0.0110665
0.0227403
0
0
0
0
0
0
0.00105372
0
0
0
0.0098179
0.0211147
0
0
0
0
0
0.0107641
0
0
0.369547
0
0.567212
0.0383496
0
0.00503165
0
0.0148633
0.000165837
0.00146334
0.0077368
0
0
0.0278033
0
0
0
0.00245914
0
0
0
0
0.00989275
0.0584856
0
0
0.36325
0
0.566875
0
0.0346969
0.0225902
0
0.0099787
0
0
0
0.00447033
0
0
0
0.0141901
0.00096314
0
0
0
0.00201104
0
0
0
0
0.00793985
0
0.36403
0
0.566504
0
0
0
0.00270555
0.00745491
0
0
0.0085807
0.013295
0.00606291
0
0.00230648
0
0.046635
0
0
0.0308073
0
0
0.0137329
0
0.00760692
0
0.00195577
0
0.359429
0
0.565451
0.00355373
0
0.052386
0.0345647
0
0
0
0.00889421
0
0
0.0061734
0.000521548
0.00122309
0.0252261
0
0
0
0.0332406
0
0
0.0199135
0
0.00356159
0
0.0254264
0
0.362866
0
0.566111
0
0.0535003
0.0331535
0
0
0
0
0.00463322
0
0.0134025
0.00125602
0
0
0.00205791
0.0395915
0
0
0
0
0
0.0113342
0.00186471
0
0
0.0756348
0
0
0.356557
0
0.564631
0.00213376
0.0328908
0
0
0.00296479
0.00390415
0
0.0001058
0
0
0.00174659
0.0399819
0
0
0
0
0
0
0
0
0
0.000916132
0
0
0.0556472
0.0243615
0
0
0.355856
0
0.565204
0.0236748
0
0.0413445
0
0.0174555
0.0131068
0
0.020356
0.00229334
0.0424293
0.0227657
0.00750671
0
0
0.00745099
0
0
0.0166688
0
0.0171228
0
0.00146299
0
0
0.00339446
0
0.0438275
0
0
0.343858
0
0.566342
0
0.0385019
0
0
0.00354263
0
0
0.00290126
0
0
0
0.0325847
0
0
0
0
0
0.0254123
0.0698483
0.0668922
0
0
0.0058417
0
0.00677787
0.00162389
0
0.0562523
0.0263315
0
0.338523
0
0.555949
0.0192634
0
0.00656742
0
0.00255072
0
0
0.0125123
0.00578714
0.00525584
0
0.00755779
0
0.0173865
0.0366699
0
0.0137101
0
0
0.0450976
0.0328089
0
0
0
0
0.00119396
0.0018915
0.0165642
0.0221864
0
0
0.290616
0
0.575817
0
0
0
0.00164657
0
6.85727e-05
0
0
0
0
0
0.00373256
0.00601034
0.00028534
0.000717859
0
0
0.00184158
0
0
0
0
0.0265184
0.0433354
0
0.0100392
0.0325378
0.0384358
0
0.0169937
0
0
0
0
0.571603
0
0.0216939
0
0
0
0.000884393
0
0.00217786
0
0.0192793
0.0233612
0.00729277
0
0.00397157
0.0142227
0.00675948
0
0.00159902
0
0
0.0339726
0
0
0.0422736
0
0.00540879
0
0.0291071
0.0326944
0
0
0
0.0491244
0.00221249
0
0.572359
0
0
0.0787736
0.0212014
0
0.0027406
0
0.00253213
0
0
0
0
0
0
0.00112449
0
0
0
0
0
0.0417388
0
0
0.0156541
0
0
0.00455141
0.0134094
0.0147712
0
0
0
0.0448876
0.0294563
0.424121
0
0.566216
0
0.0301417
0
0
0.00318616
0.00560933
0
0.00478875
0.0104336
0
0.0221438
0.00141491
0
0.0130532
0
0.00591316
0.00212728
0
0
0
0
0
0
0
0.0382578
0
0
0.0373954
0.0263671
0
0
0
0
0
0
0.406098
0
0.562978
0
0.0395504
0
0.000737776
0
0.000239877
0
0
0
0
0
0
0
0
0.0117484
0
0
0
0
0
0
0.0841891
0
0
0.00255226
0
0
0
0
0.0562524
0
0
0
0.0138672
0.00290806
0
0.327766
0
0.577964
0.0410862
0
0.0557664
0
0.000850753
0.0030207
0
0.00761752
0
0.0232673
0
0.00869031
0.0249545
0.0311759
0.0142766
0
0
0.0600132
0.0284503
0.000683843
0
0
0
0.00166291
0.0346251
0
0
0.0402669
0
0
0
0
0.0231716
0.00688911
0.0421979
0
0
0
0
0.57217
0
0.0440783
0.033965
0
0
0
0
0
0
0.014392
0
0
0
0
0
0
0.0352181
0.00623077
0
0
0.0612933
0.0279948
0.00294366
0
0
0
0
0
0.115726
0.0999581
0
0
0
0.0276507
0
0.0287718
0
0.0474258
0.0478805
0
0.572895
0
0
0
0
0.00801689
0.00561191
0
0.00807697
0
0.0268697
0.0697926
0.0307548
0.0259106
0.00283443
0.0718589
0.0277932
0.0251237
0.0923579
0
0.0066193
0.0175312
0.0490975
0
0.0178406
0
0
0
0.0107623
0
0
0.00742466
0.0411924
0
0.0184885
0.0128284
0
0
0.0333866
0.050111
0.423992
0
0.571115
0.0166403
0.00327448
0.0268048
0.028871
0
0
0
0
0
0
0
0
0
0
0
0
0
0
0.125757
0
0
0
0.121785
0.0293291
0.00636814
0
0.00206152
0
0
0.0625832
0.000656007
0
0.058614
0
0.0583549
0
0
0.0497118
0.0231103
0
0.444095
0
0.57262
0
0.00505975
0.0375529
0
0
0.00326942
0
0
0.0101376
0.0294991
0
0.0508259
0.0147725
0.0353365
0
0.0511697
0
0.0568454
0
0.00342552
0
0.000965698
0
0
0.0401039
0.0143648
0
0.0529484
0.0529884
0.0656727
0.0272703
0.027294
0
0.004686
0
0
0
0
0.020683
0
0
0.431225
0
0.562076
0.0112319
0
0
0.00782873
0.00306919
0.0142953
0
0.000666086
0
0
0
0
0.0399941
0.06872
0
0
0.148267
0
0.114271
0.000695315
0
0
0
0.0438188
0
0
0.00831896
0
0
0.011226
0.117807
0
0.0737873
0
0.072802
0.0196697
0.0580496
0.0121198
0
0
0.0141146
0
0.347625
0
0.580322
0.0499958
0.0186789
0.0349674
0
0
0
0
0
0.00556843
0.0218213
0
0.0732049
0.0766472
0.0234825
0
0.00962745
0
0.00694256
0
0.0385828
0.0181754
0
0
0
0
0
0
0.043938
0.0706619
0.0121698
0
0
0
0.0944377
0
0.0690207
0.0613941
0.0468144
0
0
0
0
0
0
0
0.574401
0
0.0113397
0.00402119
0
0
0
0
0
0.00657189
0
0.00502244
0
0.0199653
0.0084302
0.124525
0
0
0.0490527
0
0
0
0
0
0
0.00229765
0
0.0183252
0.0231375
0.0409354
0
0.0157956
0.050716
0
0
0.0867817
0
0.057511
0.0383237
0
0.026107
0
0.0399546
0
0.0918863
0.0382831
0
0.576066
0
0
0
0
0.00380984
0
0
0.00013665
0.000816688
0
0
0.00280127
0.0998768
0.00898853
0
0.0244568
0
0.0255979
0
0
0.00338081
0
0.00405975
0
0
0.0100598
0
0.00545125
0.0525051
0.020371
0.0104738
0
0
0.00128512
0
0.0981406
0.0407084
0
0.0671592
0
0.0342313
0
0
0.031327
0.00808457
0.431721
0
0.569992
0.00656493
0.071325
0.0167213
0
0
0
0
0
0.00363249
0.0244528
0
0.00283884
0
0
0.0909169
0.0133745
0
0.0157328
0
0
0.0525242
0
0.00641407
0
0
0
0.0219709
0.0652885
0
0.0017437
0.0101551
0.0394077
0.0350895
0
0.032813
0
0.0726069
0.0262181
0
0.0678899
0
0
0.0207964
0
0
0
0.444431
0
0.571379
0.0474021
0
0
0
0
0
0
0.00875928
0.000973869
0
0.0277844
0.00708054
0.0054285
0
0
0
0.0126257
0
0
0.0380417
0
0.0386967
0.00817647
0
0.00861977
0.0229394
0.0156889
0.0298577
0
0
0
0
0
0.0497353
0
0.0342971
0
0.0473167
0.0816214
0
0
0.00657595
0
0.0594462
0.0483481
0
0
0.437629
0
0.569121
0
0
0
0.00469453
0
0.00562952
0.00567855
0
0.0136062
0.0117846
0.00200999
0
0.0078878
0
0
0
0
0
0.0826446
0.0231593
0
0.0395267
0.00439918
0.00200348
0.001982
0.0123442
0.0106941
0
0.145126
0
0
0
0.0156878
0
0.0500902
0
0.0953408
0.0344125
0
0.0655654
0
0
0.0523777
0.00736722
0.0568434
0.0510916
0
0
0.420967
0
0.570843
0
0.0308644
0
0
0
0
0.00217333
0.000975942
0.0170753
0
0
0
0
0
0
0
0
0
0
0.00739337
0.0679157
0.0208838
0.0870976
0
0
0
0
0
0
0.0126144
0
0
0.00944105
0
0
0
0
0.0696375
0.0615569
0
0.0381503
0
0
0.0208226
0.021703
0
0.0847539
0
0
0.40884
0
0.565689
0
0
0.00967993
0.00496634
0
0.00035898
0
0.00463993
0.0116023
0
0.0236209
0
0.026726
0
0.00740276
0
0.0454747
0.00708369
0
0.0551301
0
0
0.0146235
0.0129274
0
0
0.0465012
0
0.00820478
0
0
0.026806
0
0
0
0.0326454
0.00536234
0
0.0806352
0.075357
0
0.0207472
0.0179228
0
0.0347782
0.0196463
0
0
0.0173385
0
0.395688
0
0.568937
0.0185825
0.0216728
0.00932383
0
0
0.00148694
0
0
0.012739
0.00071427
0
0
0
0
0
0.0145253
0
0.0784503
0.0612051
0
0.0998478
0.0145868
0
0.0156283
0.0441239
0
0.0238261
0
0
0
0.00850325
0
0.0260759
0.0212363
0
0.0151168
0
0.085499
0.0660978
0
0.0819921
0
0.016934
0.0326003
0
0.0524989
0.0353519
0
0.0309429
0.0383524
0
0.382843
0
0.56517
0.0466873
0
0.0222549
0
0
2.66751e-05
0
0.00182654
0
0
0.00531522
0.0640868
0.00743242
0
0
0
0.0230245
0.0271558
0
0.0387083
0
0
0.131174
0
0
0.00360206
0
0
0.0115424
0.0327975
0.028618
0.0315615
0
0
0
0
0.0548672
0.0454741
0.0108752
0.0336433
0
0.0402948
0
0.0357084
0
0.0364698
0.0186885
0.0501946
0
0
0
0
0.374667
0
0.565684
0
0.0128274
0.0260745
0
0.00342875
0
0
0.0149368
0.0157502
0
0
0.000296954
0
0
0.020061
0.0221337
0
0.0340113
0.00295826
0.0180816
0.0437723
0.0183771
0
0.172286
0
0
0.00588808
0.0442378
0
0.00492652
0.0059682
0.0698748
0.0395994
0.0116779
0
0
0.00854357
0
0.0950099
0
0.063391
0
0.00317793
0
0.0383385
0.0133116
0.0621945
0.00393029
0.0499044
0
0
0.01133
0
0.370822
0
0.563375
0.0617748
0.0232713
0
0
0
0
0
0
0
0
0
0
0
0.0228719
0.0337914
0
0.0819484
0.0387206
0.00850397
0.0597468
0
0
0.00332085
0
0.150855
0.0243489
0
0
0.0207989
0.0578548
0
0
0
0.0114279
0.0110894
0
0
0
0
0.00502434
0
0
0
0
0
0.0485813
0
0.0327802
0
0
0.0096852
0
0
0
0.358842
0
0.562569
0.062107
0
0
0
0
0
0.000889455
0.00983258
0
0
0
0
0.0117027
0
0
0.0124569
0.0107743
0.00669876
0.0534923
0
0.0632091
0.00765028
0.0995009
0
0
0
0.0532943
0
0
0
0.0204248
0.0330859
0.044438
0
0.0313981
0
0
0
0
0.0594422
0.0521442
0
0
0
0
0
0.0657825
0
0
0
0
0.03278
0
0
0
0.30658
0
0.570678
0
0
0.00308631
0
0
0
0
0
0
0.000861759
0
0
0
0.00529341
0
0
0.0100162
0
0.00167038
0.00885721
0.014381
0.0535444
0.0429366
0
0.104705
0
0
0
0.00484621
0
0
0
0.0136064
0
0.0186997
0
0.0682976
0
0
0
0
0
0.030413
0.0829161
0
0.0197587
0
0.0260476
0.0485765
0
0
0
0.0833435
0
0.024289
0.0146791
0
0
0.566757
0
0.00340144
0
0.000999701
0.00278015
0
0
0
0.0231875
0.00535954
0
0
0
0.0223471
0.00747064
0
0.0250106
0
0.0446953
0
0.00705761
0
0.0463952
0
0
0.108869
0.0771874
0.00913254
0.0438102
0
0
0.0704352
0
0
0
0
0
0.0545726
0.00936834
0
0
0
0
0
0
0
0.0432599
0
0
0.0484108
0
0
0
0.0578181
0
0.00402606
0.0970059
0.013142
0
0.568928
0.0245535
0.0278442
0
0.00688297
0
0
0
0.000105959
0
0
0
0
0
0.00412587
0
0
0
0
0
0
0
0
0
0.0657244
0
0.0529399
0
0.0242072
0
0.0448477
0.142841
0
0.13938
0
0.0479719
0.0131404
0.00899215
0.0329221
0
0
0.0246105
0
0
0.0684663
0
0
0
0.0690902
0.00694829
0
0.0407617
0
0
0
0.0502679
0
0
0.0324951
0.393858
0
0.562529
0
0
0
0
0
0.00411189
0.00357847
0.00114353
0.0107668
0.000807461
0
0
0.0374226
0
0
0
0
0
0.0214584
0
0
0
0
0
0
0.0158269
0.101083
0
0.0632631
0
0
0.040083
0
0.0862988
0
0.0781486
0.0869291
0.040688
0.0609896
0
0
0.0120146
0
0
0.00975463
0.017877
0
0
0.0308795
0.0449307
0
0.107718
0
0.0104155
0
0.0678545
0.0588571
0
0
0.391279
0
0.562688
0
0.0542449
0
0
0
0
0
0
0.012061
0
0
0
0
0.0459969
0
0
0.0185972
0
0
0
0
0.010978
0
0
0
0
0
0.0174408
0
0.0364188
0.00834669
0.0289819
0
0
0.00591399
0
0
0
0
0
0
0
0
0
0.0149898
0
0.00812398
0
0
0
0.0593248
0
0.141319
0
0.0537709
0.0276446
0.0651027
0
0.0332978
0
0.322427
0
0.567227
0
0
0
0
0.00390527
0
0
0
0.0110055
0.0113309
0.0261647
0.0254276
0.0452142
0
0.0452083
0.00433693
0
0.00355209
0.0403375
0
0
0.0331521
0
0
0
0.0145918
0.00622005
0
0.0998786
0
0.0150828
0
0
0
0
0.00698111
0.0156091
0.0233333
0.0313422
0
0
0
0.0335984
0.00458566
0.00513205
0
0
0.0307566
0.0349365
0
0
0.0592158
0
0.121137
0.0135075
0.0462366
0.0372314
0.013294
0.0118637
0.0193342
0
0
0
0.567608
0.00708386
0.0189563
0.00286087
0.00475779
0
0
0
0
0.0121876
0
0
0
0
0
0
0.0418042
0.0304642
0
0
0.0756572
0
0
0.0678921
0
0.0182042
0
0.0341358
0.0137691
0
0
0
0.0848788
0
0
0.000683846
0.0435628
0
0.0244929
0.0760454
0.0520296
0
0
0.0319445
0
0
0
0
0
0.071999
0.0418453
0
0
0.0538672
0
0.0771132
0.0380646
0.0367331
0.0382072
0
0.0683613
0.00974725
0.0462045
0.0306791
0
0.56617
0
0
0
0
0
0
0.00791069
0.00156519
0.00939513
0
0.063225
0.0759314
0
0.0542884
0
0
0
0.0351411
0
0
0
0.0349965
0
0.0175983
0.0159276
0
0
0.0398068
0.0143888
0
0
0
0.0502253
0
0
0.0236863
0.00740797
0
0
0
0
0.00178208
0
0.00869024
0
0.0553068
0
0
0
0
0
0.00837108
0
0.0628228
0
0.0346483
0.055613
0.0107209
0.0636491
0
0
0.0868898
0.0301006
0.394394
0
0.567049
0
0
0.0124239
0.0276364
0
0
0
0
0
0
0
0
0.143743
0
0.149447
0.0999841
0
0
0.0711741
0.0335524
0.0185621
0
0.0490323
0
0.00821588
0.0611696
0
0
0.0523721
0
0
0
0.00667835
0.0105269
0
0
0.0567649
0
0.0361691
0
0
0
0.0223212
0.0194041
0.0226566
0.0435459
0.166508
0
0
0
0
0
0.0149855
0
0.075352
0.0214399
0.0436392
0.0931459
0
0.0358604
0
0.01052
0
0
0.406444
0
0.567265
0
0.012033
0
0
0
0
0.0127843
0.00624478
0.0184364
0
0.0139823
0.0261658
0.0537103
0
0
0
0
0.0379719
0
0.0436815
0
0.0644715
0
0.0627979
0
0.0138779
0
0
0
0.0475694
0
0.0168642
0
0
0
0
0
0.122111
0
0.00688533
0
0
0
0.0053704
0.0804765
0
0
0
0
0.0511292
0
0
0
0.0269209
0
0.0769877
0.057242
0
0.0343593
0
0.0838663
0
0
0
0
0.40517
0
0.566994
0
0
0.0171319
0.018032
0
0.00379891
0
0
0
0.0022411
0.00499531
0.015368
0
0.0412367
0
0.127274
0
0
0.0142406
0
0.047653
0
0.022311
0.0265128
0.021301
0
0.00802959
0
0
0
0.0749429
0
0
0
0.00540334
0.0324153
0
0
0.0300188
0
0.0725844
0.0466007
0.0275866
0.048355
0
0.00390893
0
0
0.019002
0
0
0
0.0265311
0
0.049272
0
0.0520799
0.0800626
0
0.0602891
0
0
0
0.0190919
0.0266176
0
0.38215
0
0.566261
0
0.00703643
0
0
0
0
0.00474109
0.00235839
0.00712322
0
0
0
0.096645
0
0
0
0.029183
0
0
0.0442165
0
0.0484683
0
0
0.0729779
0.0300449
0.0507607
0.00965526
0
0.0235826
0
0.0630155
0
0.011106
0
0
0
0
0
0.0491437
0
0.0925755
0.051542
0
0.019477
0
0
0
0
0.0316326
0.000901412
0.0511779
0
0.0557384
0
0.0314487
0
0
0.0816986
0
0.0334894
0
0
0
0.0198594
0.0468869
0
0.303724
0
0.573269
2.02996e-05
0
0.018632
0.0170932
0
0.0035681
0
0
0
0.00387816
0.0248513
0.0508374
0
0
0.00408451
0.0640785
0
0
0.0499298
0
0.0171015
0
0.0390992
0.0587272
0.0152065
0
0.0460216
0.0205026
0
0
0.0730115
0
0.0591442
0
0.0887721
0.0351691
0
0
0
0
0.0669928
0.0151012
0.00403781
0.0233622
0
0
0
0
0
0.0121109
0.0163409
0
0.128129
0
0.0331392
0.0175559
0.0685663
0.0265495
0
0.0531077
0
0.0275833
0
0
0
0
0.0379461
0
0
0
0.570107
0.00945666
0.0211056
0
0
0
0.00085092
0
0.00573099
0.00975189
0
0
0
0.0108428
0.00954409
0.0671425
0.0579074
0
0.0336451
0
0.0368545
0
0.0276548
0.0397241
0.013746
0.0257914
0
0
0.0311245
0.0267952
0
0
0.0892664
0
0.0434862
0
0.0682733
0
0.0435503
0
0.00533486
0
0.0900439
0.0694807
0.0334387
0.0459824
0.0514364
0
0.00419794
0
0
0
0
0
0
0.0636494
0
0
0.0960701
0.0718611
0.0112138
0.0452325
0
0
0
0
0.0340872
0
0.00590327
0.0512198
0.0132395
0
0.568274
0.00989143
0
0.0107888
0
0
0
0
0.0008246
0
0
0
0.0398886
0
0
0
0
0.0420091
0
0.000497956
0
0.0775755
0
0.0152902
0.0879934
0
0
0.0597265
0
0.00319294
0
0.025165
0
0.122901
0.0206071
0
0
0.0844798
0
0.0270155
0.0326068
0
0
0.0301661
0.0635415
0
0
0.134758
0
0.00641987
0
0
0.00379327
0.000291743
0.0433044
0.0340635
0.0363328
0
0.0241132
0
0.0242187
0.0609894
0.0664208
0
0
0
0
0.0582067
0.049544
0.0239232
0.00140586
0.378098
0
0.568047
0.0232936
0.0178061
0.0575244
0
0
0.00728786
0
0.0135816
0.0121582
0.00581288
0.0215352
0.0208605
0.0693194
0.0681755
0
0.0793865
0
0.00630406
0.0134503
0
0
0.0922616
0
0.022967
0.010682
0.0173716
0
0.0257494
0.0159418
0.0445305
0
0.05564
0
0
0.0689942
0
0
0.0272511
0
0
0.0318611
0.0931504
0.0577799
0.0283403
0.0763966
0
0
0.207489
0
0
0.0205842
0
0.0583693
0
0.0565347
0.00349294
0.0499915
0
0.0798306
0
0.0452346
0.0168379
0.0660284
0
0
0.0438988
0
0
0.0336192
0.0507293
0
0.387823
0
0.566618
0.00238269
0
0
0
0
0
0
0.00619033
0
0
0
0.00193071
0
0
0.146606
0
0.123962
0
0
0.0505926
0
0
0.163102
0.0921022
0
0
0.0504147
0
0.0397204
0
0.0491447
0
0.119975
0.023831
0
0.0321407
0
0.0359559
0.00498822
0.067748
0
0
0.0638587
0.0328126
0
0.0975367
0
0
0
0
0.0111026
0
0.0152876
0.0332877
0
0.0434441
0
0.0499558
0
0.0610741
0.00743141
0.0547559
0.0070251
0.0587341
0
0
0.043916
0
0.0496502
0
0.0365499
0
0.383752
0
0.565637
0
0
0.0565092
0
0.0370377
0.000736342
0
0.00515418
0.00901439
0.0119642
0.00768087
0.0367361
0
0.0454264
0
0
0.0949489
0
0
0
0.0138045
0
0
0.000263777
0.0786771
0.0258319
0
0.0497606
0
0.0414433
0
0.0278007
0
0.09598
0.100179
0
0.0294103
0
0.0596489
0
0.0319719
0
0
0
0.10391
0
0.0283488
0.0166141
0.0390858
0
0
0
0.0131235
0
0.0247228
0.00453394
0.0607087
0
0.0256162
0
0.0512047
0
0.0518501
0.0239275
0.0666197
0
0
0.0460383
0
0.119343
0
0.0302222
0
0.370766
0
0.565129
0.00145457
0.0083354
0
0
0
0
0
0.00370229
0
0
0
0
0.142412
0
0
0.0312485
0
0
0
0.11898
0
0
0.00386812
0.0671998
0
0
0.155421
0.0141994
0.0127038
0.00949471
0.0182251
0
0.0223071
0
0.0643252
0
0.0463172
0
0
0.0375624
0
0
0.020258
0
0
0.0798354
0
0.0469373
0.0813473
0.0503166
0.0640738
0
0.00774613
0.00937651
0
0.0532556
0.0304503
0.0386078
0
0.039835
0
0.0484242
0
0.0597734
0.0102757
0.0954331
0
0
0.0578067
0
0.11219
0
0.0415097
0
0.35863
0
0.564572
0
0.0298677
0.0625678
0.00514977
0.0115614
0
0
0.000884576
0.00212585
0.0050838
0.00471043
0.0646297
0.00579794
0.0108365
0
0.0385284
0.00664255
0
0.0108054
0.0519736
0
0.0160424
0
0
0.0861604
0
0
0
0
0.0464635
0
0.0536496
0.0165361
0.0484318
0.0300151
0.0495915
0
0.0868917
0
0
0.0625112
0.000939357
0
0.00489558
0
0
0.0644681
0
0.0412649
0
0.056639
0
0
0.0333952
0
0
0
0.0167473
0.0192768
0
0.0722231
0
0.0593467
0
0.0584888
0
0.0941445
0
0
0.0586073
0
0.0684433
0.0363585
0.0106937
0
0.347498
0
0.56502
0
0.00288999
0
0
0
0
0
0.0138395
0
0
0
0
0
0
0.122802
0.0301955
0.0611715
0
0.0600281
0
0.0951285
0
0.0185139
0.041851
0
0
0
0
0.00347395
0
0.0646348
0
0.0463753
0
0.0514087
0
0.0751878
0
0.105687
0
0
0.0372003
0
0.0388995
0.00127011
0.0425786
0
0.0437083
0
0.00388135
0
0.0435263
0
0
0
0
0
0
0.0226242
0.0398482
0
0.0277743
0.00536337
0.0406618
0
0.0427929
0
0.100653
0
0
0.087216
0
0.0338749
0.0748449
0
0
0.33664
0
0.562891
0
0.0350695
0.0728175
0.00981307
0.0411324
0
0.00714943
0
0
0.00259824
0
0.0248146
0.00918933
0.0401041
0
0
0
0
0
0.003864
0
0
0
0.0845444
0.0266061
0.0308165
0
0.0658081
0
0.0284371
0
0.0355006
0
0.0479894
0.0557116
0
0
0.0462769
0
0.0572672
0
0.0430945
0.0437348
0.0316137
0
0
0.0100035
0
0.019098
0
0.0276587
0.00813759
0
0.0151729
0
0.00667035
0
0
0
0.0110624
0.0375994
0
0.0176783
0
0.0373387
0.0479589
0.0489291
0
0.00867885
0
0
0.093797
0.00745328
0.0437434
0.060631
0
0
0.322127
0
0.563674
0
0.0105908
0
0
0
0
0
0.00822451
0
0
0
0
0
0.0574162
0
0.00111884
0
0
0.0724396
0.0111616
0.0524048
0.0011969
0
0
0.0156182
0
0.0270708
0.00454658
0.125809
0
0.0715392
0.0597251
0.0102545
0.0191494
0.0519737
0.0320568
0.0122128
0
0.0627763
0
0.0964395
0
0.057123
0.0305224
0
0.026811
0
0
0
0
0
0
0.0688464
0.00792631
0.0757178
0
0
0
0
0
0.00700179
0.0624545
0
0.00314535
0.0128222
0.0416143
0.0377605
0.0781641
0
0
0
0
0.068673
0.00475769
0.037422
0.0682841
0
0
0.313838
0
0.562826
0.0261861
0.0102701
0
0.00328835
0.00781531
0
0
0
0.00497004
0.0107239
0
0.0394239
0.0254608
0.0140047
0.100059
0.0644166
0
0.000566967
0
0.00192161
0
0.0471715
0
0
0
0
0.0140727
0.0318712
0
0
0
0.0380995
0.0144646
0.0198522
0.00936447
0.0294106
0
0.0375123
0.0228796
0.0822203
0
0.106941
0.039369
0
0.100104
0
0.0728955
0
0.0236743
0
0
0.00536306
0
0
0
0.176762
0.033526
0
0
0
0
0.0106405
0.0294095
0
0.0213581
0.0235549
0.018401
0
0.0894378
0
0
0
0.0183237
0.0595724
0.0131321
0.0246113
0.0561611
0
0
0.308322
0
0.562967
0
0.0731735
0
0.000108042
0
0
0
0.0101141
0.00357085
0
0
0.0128862
0
0
0
0
0.104166
0
0.0915104
0
0
0
0
0.00367472
0
0
0
0
0.00609093
0
0.0494869
0.0443847
0.0150286
0
0
0.0184888
0.0433471
0
0.0304544
0
0.112701
0.0190645
0.0118703
0.0955522
0
0
0
0.00076508
0.057235
0.028368
0
0
0.0232587
0.0381112
0.00640458
0
0
0.0282275
0
0
0.0702824
0.0399171
0.0256962
0
0
0
0.0134945
0
0.00786631
0.0926269
0
0
0
0.0241501
0.0529311
0.0439067
0.013922
0.035737
0
0
0.305569
0
0.561299
0
0
0
0.00985733
0
0
0.00193203
0.0041935
0.00905349
0
0.00168838
0.0221602
0
0.0999532
0.00680099
0
0
0
0
0.00843105
0.059264
0.0256544
0
0.0140386
0
0.0353483
0.0520767
0
0
0
0
0.00138173
0.0441259
0.0421408
0
0.00792243
0
0.0841924
0.0615029
0.0342978
0
0.0353575
0.0792637
0.0169094
0.102609
0
0
0
0
0.00604256
0
0
0
0.0267011
0
0
0
0.0460988
0
0
0
0.0291001
0.0342426
0.00896917
0
0
0
0
0
0
0.0263314
0.048738
0
0.029437
0.0126512
0.0276185
0.0445884
0
0.0329845
0.0101411
0
0.256642
0
0.568942
0
0.0836204
0.0162999
0.00702856
0.144831
0.00625297
0
0.00564724
0
0
0
0
0
0
0
0.00417579
0.134382
0
0
0.0378026
0
0
0.0346565
0
0.102987
0
0.0063362
0.0461394
0
0
0
0.0294333
0.0286534
0
0.0547008
0
0.0673933
0
0.0609486
0
0.102534
0.0568695
0.0479476
0.0259094
0
0.0671504
0
0.00896935
0
0.0991747
0
0
0.0122202
0
0.0411918
0
0.0109232
0
0
0.0239926
0
0
0
0.0396658
0.0104963
0
0
0.0253104
0
0.00562092
0
0
0.0759214
0
0.0499427
0.0280478
0.027878
0.025491
0
0
0.024318
0
0
0
0.564274
0
0
0
0.0281477
0
0
0
0.00190154
0.00563489
0.00680649
0.00451931
0.00923489
0.0504314
0
0
0.00770683
0
0.0989291
0
0
0.00943547
0
0
0.00764763
0
0
0.0109152
0
0.0768342
0
0
0.0485017
0.0185206
0
0.000456654
0.0229554
0
0.032922
0.0262018
0.0522127
0
0.0782922
0.0395728
0.0519235
0.0833907
0
0.017072
0
0
0
0
0
0
0.030797
0
0
0
0.0533104
0.026042
0
0
0.0132784
0
0
0.0284102
0
0
0
0
0
0.0403702
0
0
0.0603191
0
0.0362207
0.0267562
0.0103441
0.0804798
0
0
0.0368232
0.0273175
0
0
0.565108
0
0.0170868
0.0124821
0.0444964
0.00606985
0.000929312
0
0.00260315
0.00424827
0
0
0.00772983
0
0
0.144452
0
0.107177
0
0
0.027742
0.0240146
0.0152067
0.00559765
0
0.0718901
0.0999741
0
0.0287045
0
0
0.0457951
0.0389569
0.0591455
0.011556
0
0
0
0.0825352
0.040302
0
0.0484215
0.0474737
0.0247677
0.0267323
0.0291947
0.0909592
0
0.0352849
0.0465578
0.0977935
0
0
0
0
0.0357759
0
0
0
0.0137475
0.028951
0.0870911
0.0457067
0
0.00269962
0.00261147
0.0144885
0
0
0
0
0
0.0105797
0
0
0.0523242
0
0.0619621
0.0035006
0
0.0819962
0
0
0.0520023
0
0.324556
0
0.564074
0.00850954
0
0
0
0
0
0
0.00673578
0.0128081
0.0107939
0.01042
0.0206505
0.00209824
0.0436999
0
0
0
0.13274
0.0779824
0.00477615
0.0220437
0.0608023
0.083231
0
0
0.0594758
0
0.0636713
0.0600205
0
0
0.051614
0
0.0176436
0.00755283
0.00956195
0.0102591
0.021331
0
0
0.00738568
0.00980643
0.0400252
0.0637724
0.0604323
0
0.0901773
0
0
0.011909
0
0
0
0
0
0.00220384
0
0
0.0121961
0.08409
0.0309883
0
0.00272672
0.00242013
0.0184809
0
0
0
0
0.00263009
0
0
0
0
0
0.0520399
0
0.0778318
0.0201969
0
0.066177
0.0219942
0
0.0672206
0
0.330518
0
0.562047
0
0
0
0.0621873
0.0109079
0.0142126
0
0.00890099
0
0
0
0
0
0
0
0.0508212
0
0
0
0
0.0318029
0.034726
0
0
0.0871374
0.0461556
0.0318361
0
0.0176345
0.0405489
0
0.0691098
0.0368242
0
0
0.0148915
0
0.0158154
0.0699003
0
0
0.0934033
0
0.0419204
0.0092285
0.0695717
0
0.090271
0
0.0186125
0.0133936
0
0.0158594
0
0.0224948
0
0
0
0
0
0.0160642
0.0690783
0
0
0
0.00885269
0.000334116
0
0
0
0.0370312
0
0.029256
0
0.00555377
0
0.0714499
0
0.0626798
0.044113
0
0
0.050879
0
0.0651037
0
0.328871
0
0.563696
0.0192017
0
0
0
0.0111498
0
0
0.00504926
0.00420409
0.00504108
8.97342e-05
0.02648
0
0.0382499
0.0648261
0.0508738
0
0.0731831
0.111326
0
0
0
0
0.00939292
0
0.0173044
0.0261745
0
0.0546005
0
0.0625146
0
0
0.095822
0
0
0
0.0506712
0
0.130042
0.00652909
0
0.0521798
0
0.0700086
0
0.0989825
0
0.0828491
0
0.0121761
0
0
0
0
0
0
0.00418434
0
0
0.0666082
0
0
0.00355595
0
0
0.0317722
0
0
0
0
0.0299641
0
0.0531277
0
0.0330285
0
0.112912
0
0.0485931
0.0422148
0
0
0.0516141
0
0.0522223
0
0.327656
0
0.562854
0
0
0.0557845
0.0322197
0
0
0
0
0
0.00531822
0
0
0
0
0
0
0.104603
0
0.13409
0
0
0.0418951
0.0279895
0
0.0213698
0.0995831
0
0
0
0.00180814
0
0.0362701
0
0
0.0853229
0
0
0
0
0
0.121096
0.0499492
0
0.0777087
0
0.0687733
0
0.0911783
0
0.0843118
0
0
0
0
0
0
0.0379046
0
0.0032371
0
0
0.0234498
0
0
0
0.0166116
0.000849105
0
0
0
0
0
0
0
0.0460623
0
0.0662607
0
0.133541
0
0.0475509
0.0378184
0
0.0241632
0.058637
0
0.0449501
0
0.322565
0
0.563679
0
0
0.0195389
0
0.0507487
0
0
0.00470803
0.0128309
0.000425997
0
0.0273058
0.0213121
0
0
0.0273587
0.00280793
0
0
0
0.0999827
0.0268274
0
0.0277384
0
0.0795955
0
0
0.0218851
0
0.0261741
0
0.0236111
0
0
0.0161325
0.019142
0
0
0.0150622
0
0
0.0481414
0
0.0739462
0
0.0215804
0
0.0894887
0
0.0830742
0
0
0
0.052831
0
0
0.062114
0
0.0306866
0
0
0.0187389
0.0296606
0
0
0.00328031
0.0198292
0.00223111
0
0
0
0
0
0
0
0
0.0709568
0
0.104942
0
0.0463732
0.0606445
0
0
0.0524157
0
0.0395562
0
0.302335
0
0.559183
0
0
0.0126943
0.00374534
0
0
0
0
0
0.00684005
0
0.015153
0
0.0566602
0.0160528
0.0662468
0
0.0181444
0.00685884
0.000433994
0
0
0.0596737
0.0116694
0.0441964
0
0
0
0.0759249
0.0419046
0.0690099
0.0413788
0
0
0
0
0.0308476
0
0.0192336
0
0.0113232
0
0.0241057
0.0654933
0
0.059812
0
0
0
0.0974062
0
0.0868592
0
0
0
0
0
0
0.0280919
0
0.00738427
0
0
0
0.0498372
0
0.0189013
0.0439531
0
0
0
0
0
0
0
0
0
0
0.0691777
0
0.0828675
0
0.0506873
0.072877
0
0
0.030867
0
0.0412074
0
0.256008
0
0.566824
0
0
0.00305609
0.00161498
0
0
0
0.00133377
0.00309952
0
0
0.0182914
0.0221073
0.0237695
0.0328927
0.0996691
0
0.0137613
0
0
0.105244
0.0383302
0.060893
0.0278655
0
0
0
0
0.0815623
0
0.0177281
0
0
0.062152
0
0
0
0
0
0.0389834
0.023706
0.0379553
0.0340717
0.0555766
0.0772464
0
0.0601022
0
0
0
0.00340918
0
0.0338855
0
0
0.00170772
0
0
0
0.056973
0
0.0479267
0
0.0292455
0
0.0503044
0.0435045
0.00129547
0
0
0
0
0.00683469
0
0
0
0.00122881
0
0
0.0851283
0
0.0965117
0.0121862
0.0527944
0.0963735
0
0
0.0303349
0.0178645
0.0579954
0
0
0
0.568781
0.00892733
0
0.0125474
0.00139616
0
0.00344316
0
0
0
0.00576059
0
0.0100628
0
0.0366681
0
0
0.138
0
0.152423
0
0.0747882
0
0
0.0382457
0
0
0
0.0622819
0
0.0345196
0
0
0.0110063
0
0.0519197
0.00545043
0.0590178
0
0
0
0.0610963
0.0271116
0.0619899
0.0535806
0
0.0996644
0
0
0.0337324
0
0
0
0
0.0441368
0
0
0
0
0.0144551
0
0.0430638
0
0.0320277
0.0025707
0
0
0.0497309
0
0.0388335
0
0
0.00748298
0
0.0220219
0
0
0
0
0
0
0.115144
0
0.0893621
0.032217
0
0.0874334
0
0
0.0463625
0.0145732
0.0815641
0.0311791
0
0
0.567763
0.0143525
0.0061593
0.0216157
0.00408195
0
0
0
0.000395613
0.00641948
0.0115858
0
0.0146776
0.053249
0.0831801
0
0.0793726
0
0
0
0.0096573
0
0.0124216
0
0
0
0
0.106337
0
0.0360172
0
0.0768554
0
0
0.0724557
0.0996532
0.00807908
0
0.015228
0
0
0
0.0397588
0
0.0386813
0.0476617
0
0.0934356
0
0
0.0630744
0
0
0.0289953
0
0
0.0229417
0.00558162
0
0
0.0305318
0
0.0566609
0
0.0495816
0.0254362
0
0.0443199
0
0.0274188
0
0
0.0290117
0.00262302
0
0
0.0131981
0
0.00160174
0
0
0
0.112775
0.0190129
0.0593303
0.0480907
0
0.0393133
0
0
0.0602541
0
0.0810138
0.0361676
0.31379
0
0.570195
0
0
0.038238
0
0.00781296
0
0
0
0
0.004362
0
0.0251014
0
0
0.167736
0
0.135296
0.0753296
0
0
0.00292148
0.0125979
0.108321
0.0843572
0
0.0307917
0
0.0547964
0
0.0185281
0
0.0168988
0.0337617
0
0.0115781
0
0.0599115
0
0.0135553
0
0
0
0.0475868
0.0658944
0
0.101124
0
0.074885
0
0
0.0858601
0
0.0323294
0.00465705
0
0
0.00907598
0.0625519
0
0
0.0498548
0
0.0716712
0.0432605
0.00256214
0.0379977
0
0.0180054
0
0
0.0364295
0.0308902
0.0107518
0.0264851
0
0
0.015829
0
0
0
0.0415771
0
0.0927212
0.0596649
0.0379019
0.0781629
0
0
0.0690997
0
0.0945513
0
0.0159422
0
0.318358
0
0.569748
0
0.0219864
0.0478209
0.0186218
0
0
0.0069767
0
0.0121596
0.00464491
0
0.0102708
0.0188707
0.0324967
0
0
0
0.0241765
0
0.0877649
0.0425566
0.00550579
0
0
0
0
0
0.0694174
0
0.0998655
0.0428143
0
0
0
0
0.00699194
0.0148787
0.0999706
0.0279435
0.0238555
0
0.0612098
0
0
0.0139203
0
0.0744244
0
0.0873303
0.015746
0
0.0839608
0
0
0.001972
0
0
0.0114437
0
0
0
0.0500707
0
0.0284829
0.0424192
0
0.0675547
0
0.00932737
0.0139563
0
0.0377752
0.0502533
0
0
0
0
0
0
0.035892
0
0.0426692
0
0.0673173
0.0519486
0.014042
0.0779487
0
0
0.124659
0
0.118632
0
0.0244237
0
0.306343
0
0.56544
0
0.0136015
0.020313
0
0.0100091
0
0
0
0
0.00743414
0
0.02742
0
0
0.0674315
0
0
0.0260501
0.0826769
0
0
0.0261776
0.0166661
0.0456928
0
0.074439
0.0889927
0
0.146168
0
0
0
0
0
0
0.050888
0
0.0997324
0
0
0
0.0141125
0
0
0
0.0396555
0
0.038879
0
0
0
0
0.060641
0
0
0.0429243
0
0
0
0
0.0389924
0
0.0487432
0
0.0538093
0.0669485
0
0.0324088
0.0164411
0.00540449
0.0453928
0
0.00109492
0
0
0
0.0172327
0
0
0
0.0493874
0
0.0727649
0
0.051096
0.0392129
0.00216279
0.0299433
0
0
0.0864447
0
0.0955477
0.019316
0.088679
0
0.291742
0
0.566267
0
0.0236535
0.00262288
0
0
0
0
0
0
0.00214888
0
0.00793069
0
0.0847144
0.0253014
0.00779016
0.00631873
0.03439
0
0.100857
0
0.0250492
0.00712628
0.0571465
0.0201082
0
0
0
0
0
0.0066948
0
0
0
0.0115062
0
0.0341072
0
0
0.0234563
0
0.0289342
0
0.0588187
0.00741105
0
0.0376948
0
0.00228388
0
0
0.00434191
0
0.0526656
5.18547e-05
0.0258233
0
0
0
0
0
0
0
0.0499388
0
0.0458278
0.0546229
0
0
0.0330386
0
0.0690692
0.0523848
0.103881
0
0
0
0
0
0
0.0191451
0.0555227
0
0.073709
0
0.0535109
0.022015
0.018303
0.0416228
0
0
0.0563361
0
0.0497006
0.0309668
0.0278657
0
0.289249
0
0.563947
0
0.0451586
0.0224598
0
0.00775748
0
0
0
0
0
0
0.0167092
0
0
0
0.0322921
0.0924258
0
0
0.041832
0
0
0.0151929
0
0
0
0
0
0
0
0
0
0
0
0
0
0.0175376
0.0649522
0
0.0387162
0
0
0.0433352
0
0
0.0576769
0
0.0754971
0.0646704
0
0.0369011
0
0.0627271
0.0185521
0.0478896
0
0.0587748
0
0
0
0
0
0.00839877
0
0.0437112
0