/*--------------------------------*- C++ -*----------------------------------*\
| =========                 |                                                 |
| \\      /  F ield         | OpenFOAM: The Open Source CFD Toolbox           |
|  \\    /   O peration     | Version:  2206                                  |
|   \\  /    A nd           | Website:  www.openfoam.com                      |
|    \\/     M anipulation  |                                                 |
\*---------------------------------------------------------------------------*/
FoamFile
{
    version     2.0;
    format      ascii;
    arch        "LSB;label=32;scalar=64";
    class       volScalarField;
    location    "210";
    object      nut;
}
// * * * * * * * * * * * * * * * * * * * * * * * * * * * * * * * * * * * * * //

dimensions      [0 2 -1 0 0 0 0];

internalField   nonuniform List<scalar> 
93840
(
4.27383e-07
3.8768e-13
4.29788e-07
6.81935e-08
2.9708e-16
4.09361e-07
1.37538e-09
4.24385e-08
1.95727e-11
3.45508e-07
4.95228e-08
1.48977e-08
5.13381e-08
1.03512e-09
3.11502e-07
1.97442e-08
2.72577e-08
1.30665e-08
6.3826e-08
2.28529e-09
2.73641e-07
2.90956e-08
2.21967e-08
3.38215e-08
6.663e-09
4.42724e-08
2.8788e-09
3.13538e-07
2.34707e-08
2.69205e-08
2.46639e-08
4.56942e-08
1.1255e-08
5.04534e-08
2.10968e-09
2.87919e-07
2.99837e-08
1.97623e-08
3.19283e-08
2.32256e-08
3.82478e-08
1.39281e-08
3.94415e-08
2.06884e-09
3.18118e-07
2.53629e-08
2.90878e-08
2.27986e-08
2.80513e-08
2.41235e-08
3.51863e-08
2.12538e-08
3.9239e-08
1.95325e-09
2.99778e-07
3.0992e-08
2.18213e-08
3.06515e-08
2.36762e-08
3.02347e-08
2.48234e-08
2.68662e-08
2.27226e-08
3.76444e-08
2.22296e-09
3.20666e-07
2.61594e-08
2.9558e-08
2.23129e-08
3.06026e-08
2.48781e-08
2.8326e-08
2.48541e-08
3.09661e-08
2.34636e-08
3.44197e-08
2.03123e-09
2.96669e-07
3.09012e-08
2.46801e-08
3.12642e-08
2.55556e-08
2.95829e-08
2.57069e-08
3.03861e-08
2.52726e-08
2.88711e-08
2.3762e-08
3.55321e-08
2.09879e-09
3.13827e-07
2.64387e-08
3.01074e-08
2.28252e-08
3.00792e-08
2.49105e-08
2.90976e-08
2.6234e-08
2.96798e-08
2.56586e-08
3.00491e-08
2.45003e-08
3.62365e-08
2.07991e-09
3.03219e-07
3.00062e-08
2.61425e-08
3.19312e-08
2.65327e-08
2.96827e-08
2.67172e-08
3.00982e-08
2.57866e-08
2.99465e-08
2.60909e-08
2.85622e-08
2.32107e-08
3.55213e-08
2.15609e-09
3.11546e-07
2.58139e-08
3.02926e-08
2.41642e-08
3.07207e-08
2.60116e-08
3.01899e-08
2.6356e-08
2.96869e-08
2.63448e-08
2.9471e-08
2.55317e-08
3.01813e-08
2.44099e-08
3.44518e-08
2.0882e-09
3.01404e-07
3.02921e-08
2.58186e-08
3.26385e-08
2.7084e-08
3.05188e-08
2.73116e-08
3.00285e-08
2.69067e-08
3.03525e-08
2.62617e-08
2.99246e-08
2.62018e-08
2.86234e-08
2.39362e-08
3.57675e-08
2.1981e-09
3.0788e-07
2.61059e-08
3.10927e-08
2.49648e-08
3.07779e-08
2.59023e-08
3.02382e-08
2.70874e-08
3.02187e-08
2.60981e-08
2.99317e-08
2.65176e-08
2.94303e-08
2.55458e-08
3.01762e-08
2.44655e-08
3.538e-08
2.23183e-09
3.00368e-07
2.99995e-08
2.6309e-08
3.2068e-08
2.68898e-08
3.10222e-08
2.75688e-08
3.06946e-08
2.71147e-08
3.01242e-08
2.69716e-08
3.00859e-08
2.65605e-08
3.03621e-08
2.62232e-08
2.8597e-08
2.36266e-08
3.48936e-08
2.2997e-09
3.05008e-07
2.58605e-08
2.97624e-08
2.47211e-08
3.09856e-08
2.63275e-08
3.00361e-08
2.77484e-08
3.09764e-08
2.70128e-08
3.05128e-08
2.65031e-08
3.02378e-08
2.6867e-08
2.94573e-08
2.59167e-08
3.0326e-08
2.4972e-08
3.45335e-08
2.28043e-09
2.98838e-07
3.02606e-08
2.54671e-08
3.15753e-08
2.74152e-08
3.1083e-08
2.74509e-08
3.09632e-08
2.78603e-08
3.09043e-08
2.73265e-08
3.03533e-08
2.68785e-08
3.02882e-08
2.65626e-08
3.00563e-08
2.62127e-08
2.86456e-08
2.38547e-08
3.53992e-08
2.32339e-09
3.04531e-07
2.60086e-08
3.012e-08
2.59924e-08
3.05023e-08
2.64102e-08
2.95072e-08
2.78129e-08
3.08995e-08
2.76437e-08
3.07944e-08
2.68177e-08
3.0919e-08
2.68887e-08
3.02482e-08
2.65437e-08
2.98005e-08
2.55487e-08
3.0168e-08
2.43785e-08
3.49117e-08
2.36075e-09
3.00247e-07
3.07434e-08
2.61838e-08
3.15566e-08
2.72474e-08
3.14439e-08
2.70724e-08
3.08945e-08
2.74558e-08
3.11514e-08
2.74149e-08
3.1048e-08
2.73906e-08
3.03488e-08
2.69699e-08
3.07024e-08
2.72182e-08
3.0313e-08
2.65722e-08
2.89486e-08
2.38833e-08
3.47902e-08
2.44452e-09
3.06541e-07
2.64693e-08
3.06222e-08
2.58852e-08
3.06113e-08
2.71196e-08
2.95739e-08
2.7979e-08
3.08443e-08
2.74212e-08
3.11116e-08
2.72467e-08
3.11575e-08
2.69379e-08
3.07289e-08
2.65471e-08
3.04271e-08
2.64824e-08
2.96745e-08
2.57398e-08
3.02504e-08
2.43496e-08
3.41266e-08
2.38804e-09
3.02949e-07
3.04991e-08
2.62553e-08
3.08966e-08
2.69619e-08
3.14805e-08
2.70357e-08
3.07725e-08
2.72261e-08
3.12944e-08
2.81084e-08
3.15308e-08
2.75864e-08
3.09139e-08
2.73939e-08
3.0754e-08
2.7293e-08
3.04669e-08
2.75048e-08
3.01854e-08
2.70686e-08
2.91597e-08
2.41153e-08
3.41114e-08
2.40446e-09
2.99981e-07
2.62136e-08
2.95557e-08
2.54513e-08
3.06232e-08
2.72864e-08
2.96402e-08
2.79918e-08
3.00527e-08
2.78619e-08
3.06611e-08
2.75022e-08
3.11688e-08
2.72236e-08
3.11753e-08
2.69146e-08
3.05591e-08
2.66938e-08
3.03327e-08
2.64821e-08
2.96897e-08
2.59013e-08
3.05102e-08
2.45966e-08
3.44596e-08
2.44801e-09
2.86295e-07
3.06399e-08
2.57038e-08
3.16941e-08
2.75542e-08
3.11846e-08
2.71653e-08
3.07676e-08
2.76602e-08
3.05558e-08
2.77239e-08
3.1055e-08
2.8186e-08
3.17399e-08
2.793e-08
3.09368e-08
2.7795e-08
3.05978e-08
2.78128e-08
3.07983e-08
2.79277e-08
2.96475e-08
2.68983e-08
2.89332e-08
2.42314e-08
3.48781e-08
2.77073e-09
3.04329e-07
2.5972e-08
3.08208e-08
2.71962e-08
3.05079e-08
2.70116e-08
2.98277e-08
2.81274e-08
3.01384e-08
2.76031e-08
3.07471e-08
2.74723e-08
3.12324e-08
2.76233e-08
3.12745e-08
2.72996e-08
3.08713e-08
2.72058e-08
3.08671e-08
2.69693e-08
3.04902e-08
2.64362e-08
3.01116e-08
2.53148e-08
2.9953e-08
2.4514e-08
3.45561e-08
2.65893e-09
2.91425e-07
3.0506e-08
2.68038e-08
2.95515e-08
2.6472e-08
3.0723e-08
2.71968e-08
3.10588e-08
2.73091e-08
3.10734e-08
2.74534e-08
3.04922e-08
2.80225e-08
3.08361e-08
2.86676e-08
3.12115e-08
2.80367e-08
3.10367e-08
2.78326e-08
3.04922e-08
2.75609e-08
3.08837e-08
2.79212e-08
2.99868e-08
2.74193e-08
2.90847e-08
2.39979e-08
3.45056e-08
2.67572e-09
2.97747e-07
2.63845e-08
2.90587e-08
2.84184e-08
3.03982e-08
2.76221e-08
2.97767e-08
2.82411e-08
3.0531e-08
2.71778e-08
3.08657e-08
2.7578e-08
3.06825e-08
2.76357e-08
3.11952e-08
2.73383e-08
3.09799e-08
2.76556e-08
3.08548e-08
2.73669e-08
3.0932e-08
2.70521e-08
3.02699e-08
2.66999e-08
2.97553e-08
2.64398e-08
3.00959e-08
2.46539e-08
3.42974e-08
2.86536e-09
2.91342e-07
3.02439e-08
2.75961e-08
2.87448e-08
2.64574e-08
3.10955e-08
2.69826e-08
3.09462e-08
2.78098e-08
3.17364e-08
2.79676e-08
3.09181e-08
2.76884e-08
3.0204e-08
2.82568e-08
3.1011e-08
2.83848e-08
3.18006e-08
2.85544e-08
3.10269e-08
2.79181e-08
3.08269e-08
2.79056e-08
3.07171e-08
2.77548e-08
2.98806e-08
2.5629e-08
2.93833e-08
2.43618e-08
3.3844e-08
2.83492e-09
2.94437e-07
2.57929e-08
2.89849e-08
2.6226e-08
3.04682e-08
2.8e-08
2.97625e-08
2.82412e-08
2.99759e-08
2.78797e-08
3.0131e-08
2.77127e-08
3.05908e-08
2.72908e-08
3.05631e-08
2.77719e-08
3.12016e-08
2.76533e-08
3.13474e-08
2.74505e-08
3.09038e-08
2.69222e-08
3.07243e-08
2.68628e-08
3.05692e-08
2.66692e-08
3.0092e-08
2.67778e-08
3.00935e-08
2.49261e-08
3.4702e-08
2.93371e-09
2.90182e-07
2.96955e-08
2.57928e-08
2.95298e-08
2.71891e-08
3.10832e-08
2.69398e-08
3.10008e-08
2.81505e-08
3.12964e-08
2.79893e-08
3.09033e-08
2.75705e-08
3.05958e-08
2.81803e-08
3.04235e-08
2.81983e-08
3.09756e-08
2.83708e-08
3.14278e-08
2.89384e-08
3.10256e-08
2.83513e-08
3.088e-08
2.80479e-08
3.08943e-08
2.77538e-08
2.99405e-08
2.56558e-08
2.95945e-08
2.39017e-08
3.43955e-08
3.13615e-09
2.9245e-07
2.52063e-08
2.94557e-08
2.64924e-08
2.98358e-08
2.78864e-08
2.93467e-08
2.82383e-08
2.97107e-08
2.80839e-08
3.03999e-08
2.78402e-08
3.05676e-08
2.74097e-08
3.03393e-08
2.74517e-08
3.06464e-08
2.7912e-08
3.12249e-08
2.74037e-08
3.11082e-08
2.7246e-08
3.10322e-08
2.74004e-08
3.08667e-08
2.70652e-08
3.06316e-08
2.69805e-08
3.02663e-08
2.65805e-08
3.0455e-08
2.49622e-08
3.31821e-08
3.41893e-09
2.88893e-07
2.94237e-08
2.52579e-08
2.97653e-08
2.67634e-08
3.11813e-08
2.74333e-08
3.07533e-08
2.83178e-08
3.14362e-08
2.80272e-08
3.10564e-08
2.76019e-08
3.06863e-08
2.78265e-08
3.0678e-08
2.80676e-08
3.05147e-08
2.81927e-08
3.0634e-08
2.90951e-08
3.11729e-08
2.88002e-08
3.08442e-08
2.76338e-08
3.05496e-08
2.83742e-08
3.03583e-08
2.75373e-08
2.99002e-08
2.6068e-08
2.99401e-08
2.40431e-08
3.22728e-08
2.82848e-09
2.89269e-07
2.50784e-08
2.89609e-08
2.61798e-08
2.93972e-08
2.79968e-08
2.91552e-08
2.81034e-08
2.97802e-08
2.81794e-08
3.00558e-08
2.83672e-08
3.04762e-08
2.76909e-08
3.02131e-08
2.75272e-08
2.98637e-08
2.7459e-08
3.06374e-08
2.77937e-08
3.12636e-08
2.7598e-08
3.12828e-08
2.75741e-08
3.06864e-08
2.77233e-08
3.10308e-08
2.7053e-08
3.06705e-08
2.72018e-08
2.98746e-08
2.6216e-08
3.01595e-08
2.54776e-08
3.56536e-08
2.74963e-09
2.88759e-07
2.94109e-08
2.61002e-08
2.87751e-08
2.65464e-08
3.10005e-08
2.73719e-08
3.07229e-08
2.87226e-08
3.11302e-08
2.85393e-08
3.13441e-08
2.80006e-08
3.1145e-08
2.78744e-08
3.08556e-08
2.77903e-08
3.07602e-08
2.81751e-08
3.03062e-08
2.83274e-08
3.0606e-08
2.85489e-08
3.1001e-08
2.94995e-08
3.12093e-08
2.82828e-08
3.09005e-08
2.80786e-08
3.02072e-08
2.7754e-08
2.975e-08
2.61886e-08
3.02672e-08
2.37954e-08
3.73845e-08
3.01207e-09
2.88926e-07
2.55393e-08
2.85457e-08
2.76504e-08
2.94922e-08
2.79087e-08
2.93163e-08
2.80467e-08
2.99032e-08
2.81785e-08
3.02545e-08
2.80417e-08
3.04312e-08
2.81144e-08
3.04071e-08
2.76459e-08
2.97986e-08
2.76791e-08
3.00735e-08
2.76762e-08
3.07076e-08
2.79814e-08
3.10763e-08
2.7776e-08
3.1352e-08
2.73031e-08
3.10395e-08
2.74171e-08
3.0795e-08
2.7101e-08
3.05426e-08
2.70401e-08
3.03018e-08
2.55305e-08
2.99151e-08
2.37152e-08
3.56098e-08
3.18499e-09
2.84456e-07
2.9335e-08
2.61084e-08
2.73883e-08
2.58218e-08
3.08241e-08
2.76879e-08
3.0391e-08
2.88261e-08
3.11982e-08
2.84642e-08
3.15679e-08
2.85029e-08
3.14599e-08
2.8191e-08
3.13115e-08
2.84112e-08
3.05809e-08
2.76088e-08
3.05029e-08
2.80183e-08
3.04026e-08
2.87377e-08
3.10023e-08
2.93639e-08
3.14358e-08
2.90071e-08
3.10954e-08
2.8285e-08
3.06782e-08
2.80515e-08
3.02577e-08
2.783e-08
3.04231e-08
2.63983e-08
2.96702e-08
2.41044e-08
3.46517e-08
3.56879e-09
2.85387e-07
2.58775e-08
2.8841e-08
2.57195e-08
2.94382e-08
2.80156e-08
2.95462e-08
2.79707e-08
3.01523e-08
2.79089e-08
3.03333e-08
2.78047e-08
3.04493e-08
2.79623e-08
3.03729e-08
2.78202e-08
3.00762e-08
2.79095e-08
2.99001e-08
2.76902e-08
3.00228e-08
2.74281e-08
3.06445e-08
2.74517e-08
3.13026e-08
2.72379e-08
3.15306e-08
2.75549e-08
3.12231e-08
2.80247e-08
3.04624e-08
2.72509e-08
3.02607e-08
2.69011e-08
3.0172e-08
2.60276e-08
3.03313e-08
2.4539e-08
3.29905e-08
2.89686e-09
2.81697e-07
2.93918e-08
2.58602e-08
2.94535e-08
2.70651e-08
3.10194e-08
2.78208e-08
3.03939e-08
2.89681e-08
3.10647e-08
2.87257e-08
3.119e-08
2.84541e-08
3.12295e-08
2.84165e-08
3.12615e-08
2.83562e-08
3.07277e-08
2.85672e-08
3.037e-08
2.74022e-08
3.08708e-08
2.86291e-08
3.04396e-08
2.89948e-08
3.05741e-08
2.92579e-08
3.15087e-08
2.8943e-08
3.11147e-08
2.84124e-08
3.09831e-08
2.81746e-08
3.05292e-08
2.79376e-08
3.00015e-08
2.62011e-08
3.0552e-08
2.46069e-08
3.6673e-08
2.89358e-09
2.84548e-07
2.61468e-08
2.90432e-08
2.57589e-08
2.90862e-08
2.80079e-08
2.96681e-08
2.76842e-08
3.02529e-08
2.7891e-08
3.02241e-08
2.77269e-08
3.03429e-08
2.8089e-08
3.07171e-08
2.77767e-08
3.01069e-08
2.79957e-08
2.99509e-08
2.78404e-08
2.98804e-08
2.76896e-08
3.01755e-08
2.72283e-08
3.07748e-08
2.78378e-08
3.13611e-08
2.78667e-08
3.11148e-08
2.80317e-08
3.07598e-08
2.78151e-08
3.06745e-08
2.75637e-08
3.0345e-08
2.67296e-08
3.07264e-08
2.58534e-08
3.06038e-08
2.41173e-08
3.84054e-08
3.14224e-09
2.80268e-07
2.99206e-08
2.59515e-08
2.85755e-08
2.74212e-08
3.09158e-08
2.80454e-08
3.03165e-08
2.88434e-08
3.03727e-08
2.85523e-08
3.10278e-08
2.82102e-08
3.06799e-08
2.83722e-08
3.10377e-08
2.83403e-08
3.10054e-08
2.82073e-08
3.03788e-08
2.88369e-08
3.05085e-08
2.76009e-08
3.03696e-08
2.90497e-08
3.01703e-08
2.90454e-08
3.1146e-08
2.92236e-08
3.14832e-08
2.86288e-08
3.11361e-08
2.77633e-08
3.10729e-08
2.79488e-08
3.06687e-08
2.79114e-08
2.99734e-08
2.64922e-08
2.99045e-08
2.34644e-08
3.60596e-08
3.28582e-09
2.82129e-07
2.65598e-08
2.96075e-08
2.72487e-08
2.9245e-08
2.7584e-08
2.97206e-08
2.77818e-08
3.02378e-08
2.7977e-08
3.03746e-08
2.74614e-08
3.05346e-08
2.79409e-08
2.98192e-08
2.79675e-08
3.01737e-08
2.76698e-08
3.01e-08
2.80302e-08
2.98359e-08
2.79654e-08
2.96185e-08
2.79456e-08
2.96728e-08
2.73771e-08
3.06899e-08
2.78646e-08
3.14858e-08
2.81386e-08
3.16349e-08
2.77897e-08
3.11916e-08
2.82761e-08
3.07017e-08
2.78407e-08
3.05037e-08
2.68431e-08
3.05073e-08
2.56842e-08
3.03512e-08
2.4332e-08
3.5565e-08
3.43554e-09
2.79677e-07
2.97829e-08
2.65432e-08
2.83862e-08
2.66918e-08
3.01541e-08
2.79865e-08
3.02616e-08
2.86087e-08
3.0527e-08
2.83815e-08
3.09958e-08
2.8492e-08
3.06689e-08
2.82015e-08
3.07046e-08
2.87501e-08
3.13511e-08
2.88913e-08
3.06831e-08
2.94771e-08
2.99021e-08
2.89124e-08
3.05546e-08
2.79551e-08
3.01003e-08
2.86332e-08
3.02922e-08
2.91691e-08
3.07668e-08
2.89701e-08
3.11272e-08
2.85733e-08
3.10668e-08
2.88142e-08
3.0744e-08
2.8664e-08
3.03062e-08
2.81949e-08
3.0029e-08
2.69576e-08
2.98075e-08
2.40918e-08
3.39901e-08
3.68953e-09
2.80128e-07
2.65155e-08
2.96028e-08
2.62616e-08
2.93927e-08
2.7586e-08
3.01327e-08
2.82449e-08
3.05217e-08
2.72258e-08
3.01774e-08
2.7772e-08
3.03149e-08
2.80074e-08
3.02831e-08
2.73633e-08
3.02707e-08
2.82941e-08
2.98527e-08
2.76575e-08
2.99313e-08
2.77483e-08
2.98239e-08
2.78814e-08
2.96358e-08
2.78809e-08
2.98883e-08
2.75225e-08
3.05352e-08
2.83069e-08
3.17062e-08
2.85687e-08
3.08563e-08
2.86495e-08
3.08083e-08
2.89235e-08
3.07371e-08
2.78822e-08
3.04753e-08
2.65388e-08
3.08232e-08
2.55795e-08
3.07275e-08
2.47416e-08
3.40456e-08
3.07589e-09
2.78103e-07
2.97511e-08
2.7219e-08
2.89858e-08
2.70751e-08
3.00645e-08
2.82552e-08
3.02558e-08
2.86313e-08
3.12574e-08
2.87015e-08
3.03922e-08
2.90175e-08
3.03974e-08
2.76699e-08
3.05371e-08
2.89123e-08
3.06775e-08
2.93652e-08
3.05132e-08
2.94912e-08
3.03125e-08
2.93955e-08
3.01826e-08
2.86751e-08
3.05952e-08
2.81002e-08
3.02285e-08
2.87084e-08
3.04512e-08
2.9297e-08
3.06927e-08
2.94305e-08
3.14115e-08
2.90133e-08
3.06313e-08
2.903e-08
3.03774e-08
2.8028e-08
3.0169e-08
2.78554e-08
3.01969e-08
2.6603e-08
3.04165e-08
2.48711e-08
3.7106e-08
3.12191e-09
2.77895e-07
2.63326e-08
2.92735e-08
2.66028e-08
2.90006e-08
2.74044e-08
2.98755e-08
2.80734e-08
2.98603e-08
2.77945e-08
3.02094e-08
2.78061e-08
2.99411e-08
2.85142e-08
2.98312e-08
2.86663e-08
3.00316e-08
2.79314e-08
3.03088e-08
2.82105e-08
3.0301e-08
2.8497e-08
2.99655e-08
2.80374e-08
2.97214e-08
2.80179e-08
2.95515e-08
2.81411e-08
2.96665e-08
2.76253e-08
3.06454e-08
2.80402e-08
3.14391e-08
2.77487e-08
3.13743e-08
2.89836e-08
3.05459e-08
2.88273e-08
3.06214e-08
2.7685e-08
3.05967e-08
2.65251e-08
3.10379e-08
2.6154e-08
2.99477e-08
2.38134e-08
3.79043e-08
3.48332e-09
2.7548e-07
2.94707e-08
2.65995e-08
2.85966e-08
2.67016e-08
2.9784e-08
2.82334e-08
3.03262e-08
2.86387e-08
3.01111e-08
2.89034e-08
3.07656e-08
2.84584e-08
3.0532e-08
2.79286e-08
3.03469e-08
2.83608e-08
3.03117e-08
2.86691e-08
3.08316e-08
2.88138e-08
3.05447e-08
2.90338e-08
3.03649e-08
2.92082e-08
3.0085e-08
2.86299e-08
3.04123e-08
2.82854e-08
3.02366e-08
2.86811e-08
3.03757e-08
2.92735e-08
3.06487e-08
2.95901e-08
3.14637e-08
2.90293e-08
3.04312e-08
2.8784e-08
3.06547e-08
2.78662e-08
3.06107e-08
2.80516e-08
3.03539e-08
2.68795e-08
3.04963e-08
2.39752e-08
3.52243e-08
3.58743e-09
2.76136e-07
2.58892e-08
2.93264e-08
2.67097e-08
2.88421e-08
2.74784e-08
2.98708e-08
2.81342e-08
2.9753e-08
2.79332e-08
3.03307e-08
2.77416e-08
3.04671e-08
2.81836e-08
3.01414e-08
2.85141e-08
3.01364e-08
2.85148e-08
3.05678e-08
2.80841e-08
3.01745e-08
2.85913e-08
3.00413e-08
2.82496e-08
2.99977e-08
2.7883e-08
2.97145e-08
2.82341e-08
2.95052e-08
2.80043e-08
2.97137e-08
2.7659e-08
3.04728e-08
2.81479e-08
3.1402e-08
2.85614e-08
3.1166e-08
2.91404e-08
3.03913e-08
2.86386e-08
3.09109e-08
2.77281e-08
3.10227e-08
2.64484e-08
3.11632e-08
2.58999e-08
3.04748e-08
2.46043e-08
3.44141e-08
3.7974e-09
2.75362e-07
2.98971e-08
2.61099e-08
2.80821e-08
2.65552e-08
2.995e-08
2.82508e-08
3.01525e-08
2.86179e-08
3.00822e-08
2.84535e-08
3.04611e-08
2.82216e-08
3.07902e-08
2.85598e-08
3.07231e-08
2.86926e-08
2.9994e-08
2.85622e-08
3.02209e-08
2.88768e-08
3.07387e-08
2.96029e-08
3.03393e-08
2.92932e-08
3.05041e-08
2.92425e-08
3.00186e-08
2.86558e-08
2.98303e-08
2.81709e-08
3.04542e-08
2.8671e-08
3.04176e-08
2.90367e-08
3.08689e-08
3.0066e-08
3.10254e-08
2.94234e-08
3.05532e-08
2.85974e-08
3.09247e-08
2.80445e-08
3.05733e-08
2.80133e-08
3.04927e-08
2.64313e-08
3.03006e-08
2.4584e-08
3.32647e-08
3.4319e-09
2.74666e-07
2.64459e-08
2.91237e-08
2.75776e-08
2.88467e-08
2.75057e-08
2.95078e-08
2.79262e-08
2.97611e-08
2.80755e-08
3.01956e-08
2.79143e-08
3.03671e-08
2.80494e-08
3.03905e-08
2.85006e-08
3.02829e-08
2.84505e-08
2.99964e-08
2.90295e-08
3.05532e-08
2.79701e-08
3.03147e-08
2.90825e-08
3.01032e-08
2.80752e-08
3.00167e-08
2.80187e-08
2.9835e-08
2.81505e-08
2.96088e-08
2.81781e-08
2.98449e-08
2.77569e-08
3.02233e-08
2.92013e-08
3.09597e-08
2.87294e-08
3.1079e-08
2.91615e-08
3.03975e-08
2.84407e-08
3.10989e-08
2.77594e-08
3.0828e-08
2.68615e-08
3.03298e-08
2.65469e-08
3.09848e-08
2.50737e-08
3.5892e-08
3.48089e-09
2.73227e-07
2.91235e-08
2.63621e-08
2.79627e-08
2.63401e-08
2.97578e-08
2.78358e-08
3.00146e-08
2.857e-08
3.00611e-08
2.81957e-08
3.01706e-08
2.83745e-08
3.1033e-08
2.8562e-08
3.05582e-08
2.86969e-08
3.06989e-08
2.95145e-08
3.04309e-08
2.88782e-08
3.03957e-08
2.87669e-08
3.03154e-08
2.86339e-08
3.06233e-08
2.94276e-08
3.04215e-08
2.90467e-08
3.00765e-08
2.8862e-08
3.00168e-08
2.80944e-08
3.04934e-08
2.85423e-08
3.0733e-08
2.93193e-08
3.10086e-08
3.02348e-08
3.08586e-08
2.90082e-08
3.07052e-08
2.8417e-08
3.11928e-08
2.8343e-08
3.03345e-08
2.79373e-08
3.00548e-08
2.57971e-08
3.06052e-08
2.4307e-08
3.70386e-08
3.66739e-09
2.7413e-07
2.62783e-08
2.89306e-08
2.70695e-08
2.84267e-08
2.7391e-08
2.92678e-08
2.79506e-08
2.97897e-08
2.81209e-08
2.99189e-08
2.85261e-08
3.03186e-08
2.78471e-08
3.0387e-08
2.84959e-08
3.03902e-08
2.86828e-08
3.03285e-08
2.83894e-08
2.99192e-08
2.89253e-08
3.02883e-08
2.82406e-08
3.04487e-08
2.84539e-08
3.02374e-08
2.80051e-08
3.01244e-08
2.82532e-08
2.96672e-08
2.77653e-08
2.94008e-08
2.80636e-08
3.00746e-08
2.79626e-08
3.03736e-08
2.88856e-08
3.07665e-08
2.91892e-08
3.07858e-08
2.90071e-08
3.08699e-08
2.83357e-08
3.10934e-08
2.78543e-08
3.04273e-08
2.70293e-08
3.13647e-08
2.60868e-08
3.09079e-08
2.40168e-08
3.56635e-08
3.67008e-09
2.72769e-07
2.9104e-08
2.69937e-08
2.82593e-08
2.6221e-08
2.99136e-08
2.79404e-08
2.99285e-08
2.85683e-08
3.01184e-08
2.82691e-08
3.02791e-08
2.84386e-08
3.05102e-08
2.85661e-08
3.07095e-08
2.86482e-08
3.02332e-08
2.86152e-08
3.04198e-08
2.9005e-08
3.0168e-08
2.86751e-08
3.01765e-08
2.92066e-08
3.01272e-08
2.88475e-08
3.04924e-08
2.95208e-08
3.01368e-08
2.91269e-08
3.00228e-08
2.90974e-08
2.96939e-08
2.80483e-08
3.02707e-08
2.89833e-08
3.04465e-08
2.97981e-08
3.10014e-08
2.95464e-08
3.07595e-08
2.87671e-08
3.10779e-08
2.85291e-08
3.08691e-08
2.81735e-08
3.04507e-08
2.73838e-08
3.07879e-08
2.5981e-08
3.05898e-08
2.46955e-08
3.58032e-08
3.75938e-09
2.72335e-07
2.6922e-08
2.84299e-08
2.64736e-08
2.83823e-08
2.7394e-08
2.91964e-08
2.77894e-08
2.9585e-08
2.79999e-08
2.98264e-08
2.80115e-08
3.00124e-08
2.81307e-08
3.04312e-08
2.80601e-08
3.01726e-08
2.83957e-08
3.05114e-08
2.86612e-08
2.98045e-08
2.87938e-08
3.03686e-08
2.87809e-08
3.00527e-08
2.85779e-08
3.01798e-08
2.91019e-08
3.03083e-08
2.81313e-08
2.96985e-08
2.8107e-08
2.97392e-08
2.82894e-08
2.99619e-08
2.7975e-08
3.00124e-08
2.83298e-08
3.06284e-08
2.90825e-08
3.06168e-08
2.95051e-08
3.12267e-08
2.8773e-08
3.12703e-08
2.8334e-08
3.11054e-08
2.7962e-08
3.02165e-08
2.7236e-08
3.1182e-08
2.63397e-08
3.06067e-08
2.43578e-08
3.55696e-08
4.02311e-09
2.69863e-07
2.82655e-08
2.65521e-08
2.80201e-08
2.60143e-08
2.95711e-08
2.77991e-08
2.96422e-08
2.85427e-08
3.02565e-08
2.79803e-08
3.07293e-08
2.82449e-08
3.04127e-08
2.83849e-08
3.10588e-08
2.88055e-08
3.06455e-08
2.87696e-08
2.98414e-08
2.89501e-08
3.02229e-08
2.85379e-08
3.05141e-08
2.89905e-08
2.98984e-08
2.94035e-08
3.07572e-08
2.8588e-08
3.04025e-08
2.93201e-08
3.02759e-08
2.92102e-08
3.00963e-08
2.86206e-08
2.97459e-08
2.83091e-08
3.04067e-08
2.87188e-08
3.04369e-08
2.89317e-08
3.1084e-08
2.90267e-08
3.10135e-08
2.87247e-08
3.14623e-08
2.82386e-08
3.09723e-08
2.8176e-08
3.01056e-08
2.73634e-08
3.02593e-08
2.60924e-08
3.04239e-08
2.45084e-08
3.41879e-08
4.18507e-09
2.71265e-07
2.61681e-08
2.92857e-08
2.59701e-08
2.83858e-08
2.74777e-08
2.93374e-08
2.7819e-08
2.91813e-08
2.82857e-08
2.94885e-08
2.7833e-08
3.02987e-08
2.78307e-08
2.99591e-08
2.80573e-08
2.9948e-08
2.8299e-08
3.03529e-08
2.84388e-08
3.04912e-08
2.84602e-08
3.03681e-08
2.87565e-08
2.988e-08
2.91784e-08
2.9234e-08
2.86852e-08
3.02967e-08
2.85224e-08
3.00007e-08
2.79451e-08
2.98642e-08
2.8034e-08
2.96741e-08
2.8033e-08
2.9755e-08
2.79846e-08
3.01601e-08
2.81485e-08
3.07653e-08
2.91482e-08
3.11272e-08
2.93879e-08
3.09322e-08
2.87309e-08
3.12816e-08
2.81836e-08
3.11613e-08
2.78471e-08
3.03498e-08
2.74286e-08
3.08624e-08
2.65155e-08
3.04832e-08
2.48822e-08
3.31123e-08
4.40014e-09
2.67804e-07
2.94053e-08
2.67861e-08
2.82713e-08
2.64826e-08
2.98387e-08
2.79728e-08
2.94116e-08
2.83148e-08
3.01567e-08
2.76608e-08
3.04768e-08
2.81843e-08
3.11457e-08
2.83901e-08
3.03765e-08
2.85193e-08
3.07083e-08
2.85734e-08
3.0163e-08
2.83842e-08
3.04819e-08
2.85997e-08
3.01406e-08
2.85022e-08
3.0238e-08
2.90375e-08
3.02138e-08
2.9027e-08
3.03767e-08
2.87565e-08
3.02929e-08
2.95754e-08
3.02888e-08
2.88938e-08
2.9795e-08
2.87207e-08
2.96481e-08
2.84501e-08
3.03361e-08
2.89828e-08
3.05366e-08
2.88618e-08
3.11466e-08
2.9232e-08
3.1529e-08
2.87859e-08
3.16006e-08
2.82187e-08
3.08944e-08
2.7957e-08
3.02107e-08
2.72496e-08
3.05684e-08
2.65477e-08
3.06792e-08
2.49326e-08
3.25525e-08
3.88346e-09
2.66819e-07
2.64792e-08
2.87846e-08
2.65763e-08
2.83633e-08
2.75954e-08
2.92393e-08
2.76209e-08
2.8814e-08
2.82909e-08
2.91001e-08
2.80692e-08
2.95196e-08
2.79e-08
2.99916e-08
2.79316e-08
3.01624e-08
2.8218e-08
3.03601e-08
2.8407e-08
2.98907e-08
2.81867e-08
3.01877e-08
2.8598e-08
2.95696e-08
2.89496e-08
3.02231e-08
2.92328e-08
2.97211e-08
2.87994e-08
3.01088e-08
2.87074e-08
3.02388e-08
2.80726e-08
3.01085e-08
2.78257e-08
2.97788e-08
2.7756e-08
2.99707e-08
2.81723e-08
3.02042e-08
2.87915e-08
3.05497e-08
2.93107e-08
3.11356e-08
2.91425e-08
3.13992e-08
2.86318e-08
3.13881e-08
2.81104e-08
3.1051e-08
2.80972e-08
3.03495e-08
2.7606e-08
3.04501e-08
2.64726e-08
3.04362e-08
2.48997e-08
3.56452e-08
3.87356e-09
2.66324e-07
2.87578e-08
2.71407e-08
2.74713e-08
2.6397e-08
2.97402e-08
2.78158e-08
2.9343e-08
2.813e-08
3.02008e-08
2.76975e-08
3.05366e-08
2.77188e-08
3.06687e-08
2.82563e-08
3.06867e-08
2.79377e-08
3.02001e-08
2.84466e-08
3.05558e-08
2.85117e-08
3.09415e-08
2.8672e-08
3.03453e-08
2.86731e-08
3.04156e-08
2.88387e-08
2.97244e-08
2.89389e-08
3.02854e-08
2.86931e-08
3.04303e-08
2.9458e-08
3.01738e-08
2.99002e-08
3.00597e-08
2.9466e-08
2.99364e-08
2.94015e-08
2.93548e-08
2.83234e-08
3.05785e-08
2.9006e-08
3.07346e-08
2.89335e-08
3.1075e-08
2.91811e-08
3.13141e-08
2.87193e-08
3.14108e-08
2.85676e-08
3.08394e-08
2.84141e-08
3.04964e-08
2.75496e-08
3.06094e-08
2.66827e-08
3.04989e-08
2.44366e-08
3.63558e-08
4.18648e-09
2.66504e-07
2.71229e-08
2.90053e-08
2.65669e-08
2.86369e-08
2.74497e-08
2.89755e-08
2.76411e-08
2.87231e-08
2.79975e-08
2.89639e-08
2.79434e-08
2.947e-08
2.81104e-08
2.97232e-08
2.78674e-08
3.04007e-08
2.86685e-08
2.99054e-08
2.822e-08
3.06695e-08
2.87156e-08
2.95061e-08
2.82796e-08
3.0246e-08
2.84577e-08
2.99091e-08
2.86573e-08
3.01416e-08
2.90932e-08
2.94357e-08
2.89333e-08
3.04739e-08
2.86442e-08
2.98786e-08
2.82092e-08
2.9688e-08
2.80472e-08
2.97477e-08
2.7984e-08
2.96653e-08
2.83953e-08
3.03415e-08
2.83722e-08
3.08134e-08
2.91312e-08
3.10289e-08
2.95014e-08
3.15448e-08
2.86229e-08
3.13482e-08
2.86019e-08
3.06888e-08
2.82307e-08
3.05126e-08
2.76248e-08
3.0697e-08
2.6377e-08
3.0257e-08
2.42142e-08
3.49567e-08
4.30923e-09
2.64232e-07
2.86647e-08
2.70115e-08
2.79918e-08
2.64318e-08
2.94907e-08
2.76357e-08
2.93326e-08
2.81017e-08
2.98212e-08
2.78496e-08
3.06447e-08
2.77072e-08
3.09863e-08
2.81804e-08
3.08991e-08
2.82863e-08
3.04914e-08
2.86591e-08
3.04039e-08
2.83333e-08
3.04968e-08
2.88551e-08
3.108e-08
2.87378e-08
3.0497e-08
2.88538e-08
3.01189e-08
2.87199e-08
3.02397e-08
2.89333e-08
2.97686e-08
2.89659e-08
2.99643e-08
2.97058e-08
2.9787e-08
3.0183e-08
2.96899e-08
2.94658e-08
2.98129e-08
2.88733e-08
2.96345e-08
2.84809e-08
3.0218e-08
2.95783e-08
3.07595e-08
2.905e-08
3.10604e-08
2.97004e-08
3.16659e-08
2.86418e-08
3.1426e-08
2.88583e-08
3.05955e-08
2.86359e-08
3.04162e-08
2.75334e-08
3.03965e-08
2.65834e-08
3.04573e-08
2.46694e-08
3.37771e-08
4.6573e-09
2.62971e-07
2.73986e-08
2.91321e-08
2.62545e-08
2.85125e-08
2.7339e-08
2.89744e-08
2.78622e-08
2.89028e-08
2.80195e-08
2.86585e-08
2.80423e-08
2.97649e-08
2.79761e-08
2.86388e-08
2.79221e-08
2.97271e-08
2.76985e-08
2.98348e-08
2.83717e-08
3.01137e-08
2.86473e-08
3.05412e-08
2.8578e-08
2.99276e-08
2.84477e-08
3.04907e-08
2.87709e-08
3.0169e-08
2.87597e-08
3.01169e-08
2.90645e-08
3.00976e-08
2.84613e-08
2.99745e-08
2.87611e-08
2.97544e-08
2.83955e-08
2.99512e-08
2.79697e-08
2.9657e-08
2.80352e-08
2.95828e-08
2.85819e-08
3.05144e-08
2.84352e-08
3.08232e-08
2.96187e-08
3.09448e-08
2.95012e-08
3.12738e-08
2.86873e-08
3.11692e-08
2.89994e-08
3.04931e-08
2.84066e-08
3.04717e-08
2.74801e-08
3.06574e-08
2.62219e-08
3.0416e-08
2.48197e-08
3.32751e-08
4.02853e-09
2.61471e-07
2.88297e-08
2.65351e-08
2.79566e-08
2.64449e-08
2.92201e-08
2.73848e-08
2.93507e-08
2.80061e-08
2.94966e-08
2.79584e-08
3.02525e-08
2.77721e-08
3.06299e-08
2.7657e-08
3.0719e-08
2.76191e-08
3.08076e-08
2.84016e-08
3.05559e-08
2.80028e-08
3.05745e-08
2.84743e-08
3.07042e-08
2.9346e-08
3.05726e-08
2.9027e-08
3.04665e-08
2.87071e-08
3.03888e-08
2.83617e-08
3.05332e-08
2.8695e-08
3.00083e-08
2.90062e-08
3.03991e-08
2.97793e-08
2.98313e-08
2.96971e-08
2.99856e-08
2.90956e-08
2.97816e-08
2.89606e-08
2.97414e-08
2.83309e-08
3.03038e-08
2.91489e-08
3.09791e-08
2.93714e-08
3.10598e-08
2.93791e-08
3.1646e-08
2.91576e-08
3.11359e-08
2.93004e-08
3.03003e-08
2.84424e-08
3.01516e-08
2.72932e-08
3.09763e-08
2.62773e-08
3.05269e-08
2.5017e-08
3.64933e-08
3.96066e-09
2.61986e-07
2.72975e-08
2.97635e-08
2.6243e-08
2.86709e-08
2.74068e-08
2.89374e-08
2.80286e-08
2.90673e-08
2.81781e-08
2.87872e-08
2.77124e-08
2.96057e-08
2.82257e-08
2.9855e-08
2.80635e-08
2.93878e-08
2.7911e-08
2.96373e-08
2.84677e-08
2.99125e-08
2.83654e-08
3.00102e-08
2.87048e-08
3.01592e-08
2.86546e-08
3.02072e-08
2.87185e-08
3.01519e-08
2.87097e-08
3.01839e-08
2.86847e-08
3.02724e-08
2.89417e-08
2.99049e-08
2.86602e-08
2.9883e-08
2.88929e-08
2.98346e-08
2.8507e-08
2.95939e-08
2.80653e-08
2.97831e-08
2.82711e-08
2.95934e-08
2.86868e-08
3.02898e-08
2.8679e-08
3.06574e-08
2.94774e-08
3.08763e-08
2.93431e-08
3.15533e-08
2.94001e-08
3.09144e-08
2.91185e-08
3.04007e-08
2.82573e-08
3.09324e-08
2.74938e-08
3.0542e-08
2.64538e-08
3.0423e-08
2.39085e-08
3.81599e-08
4.24409e-09
2.58936e-07
2.88933e-08
2.65739e-08
2.76132e-08
2.64462e-08
2.90704e-08
2.73001e-08
2.92478e-08
2.79853e-08
2.94341e-08
2.77856e-08
2.96701e-08
2.7618e-08
2.95257e-08
2.82161e-08
2.98332e-08
2.83176e-08
3.07673e-08
2.80535e-08
3.03126e-08
2.84239e-08
3.04785e-08
2.86732e-08
3.04316e-08
2.89876e-08
3.08534e-08
2.89938e-08
3.07597e-08
2.88829e-08
3.05553e-08
2.87886e-08
3.06478e-08
2.86784e-08
3.04308e-08
2.86196e-08
3.02381e-08
2.92302e-08
3.05151e-08
2.94223e-08
2.98731e-08
2.97491e-08
2.9851e-08
2.93485e-08
2.98889e-08
2.89885e-08
2.96062e-08
2.84884e-08
3.00963e-08
2.91776e-08
3.11385e-08
2.93632e-08
3.09717e-08
2.95602e-08
3.15197e-08
2.92647e-08
3.08207e-08
2.91879e-08
3.02621e-08
2.81571e-08
3.02103e-08
2.74311e-08
3.07367e-08
2.63471e-08
3.05653e-08
2.39681e-08
3.65769e-08
4.29438e-09
2.6066e-07
2.73193e-08
2.96076e-08
2.63177e-08
2.85869e-08
2.74419e-08
2.87146e-08
2.80759e-08
2.91277e-08
2.82444e-08
2.8924e-08
2.73556e-08
2.92916e-08
2.84171e-08
2.91019e-08
2.85986e-08
2.93248e-08
2.77959e-08
2.89819e-08
2.84336e-08
2.97184e-08
2.88551e-08
2.94771e-08
2.86655e-08
3.0278e-08
2.86819e-08
3.01697e-08
2.88367e-08
3.00574e-08
2.89088e-08
3.01034e-08
2.89026e-08
3.02112e-08
2.90061e-08
3.00746e-08
2.8999e-08
2.98879e-08
2.89865e-08
2.98373e-08
2.92276e-08
2.98458e-08
2.84611e-08
3.01281e-08
2.78715e-08
2.97079e-08
2.78434e-08
2.94769e-08
2.85472e-08
3.01334e-08
2.86413e-08
3.0741e-08
2.95171e-08
3.1097e-08
2.93671e-08
3.13815e-08
2.95661e-08
3.06857e-08
2.91224e-08
3.0168e-08
2.81701e-08
3.07693e-08
2.74464e-08
3.09164e-08
2.60671e-08
3.02078e-08
2.4598e-08
3.64085e-08
4.55546e-09
2.58419e-07
2.90276e-08
2.67621e-08
2.73034e-08
2.64321e-08
2.86727e-08
2.71158e-08
2.9365e-08
2.80203e-08
2.9319e-08
2.77931e-08
2.95145e-08
2.82841e-08
2.97053e-08
2.78846e-08
2.94976e-08
2.84368e-08
2.9751e-08
2.79417e-08
3.07034e-08
2.81966e-08
2.95053e-08
2.88396e-08
3.01716e-08
2.88119e-08
3.01494e-08
2.9373e-08
3.03674e-08
2.90968e-08
3.0488e-08
2.90051e-08
3.03406e-08
2.86895e-08
3.09308e-08
2.85273e-08
3.02665e-08
2.89006e-08
3.04997e-08
2.94539e-08
3.01862e-08
2.93786e-08
2.95997e-08
2.97687e-08
2.97385e-08
2.93034e-08
2.99218e-08
2.90058e-08
2.96516e-08
2.85369e-08
3.03254e-08
2.96262e-08
3.06116e-08
2.96757e-08
3.12616e-08
3.00243e-08
3.16559e-08
2.9489e-08
3.07352e-08
2.90309e-08
3.00743e-08
2.8181e-08
3.06242e-08
2.70962e-08
3.09032e-08
2.68539e-08
3.04303e-08
2.44081e-08
3.42003e-08
4.78876e-09
2.57677e-07
2.74875e-08
2.96649e-08
2.6544e-08
2.82328e-08
2.72247e-08
2.87634e-08
2.81775e-08
2.89576e-08
2.82442e-08
2.90866e-08
2.74575e-08
2.93016e-08
2.7339e-08
2.96019e-08
2.79573e-08
2.90975e-08
2.80998e-08
2.98048e-08
2.8294e-08
2.92107e-08
2.85295e-08
2.99725e-08
2.8822e-08
2.97741e-08
2.85371e-08
2.99971e-08
2.8877e-08
3.03211e-08
2.87898e-08
3.02692e-08
2.92196e-08
2.99727e-08
2.90843e-08