/*--------------------------------*- C++ -*----------------------------------*\
| =========                 |                                                 |
| \\      /  F ield         | OpenFOAM: The Open Source CFD Toolbox           |
|  \\    /   O peration     | Version:  2206                                  |
|   \\  /    A nd           | Website:  www.openfoam.com                      |
|    \\/     M anipulation  |                                                 |
\*---------------------------------------------------------------------------*/
FoamFile
{
    version     2.0;
    format      ascii;
    arch        "LSB;label=32;scalar=64";
    class       volScalarField;
    location    "210";
    object      nuTildaMean;
}
// * * * * * * * * * * * * * * * * * * * * * * * * * * * * * * * * * * * * * //

dimensions      [0 2 -1 0 0 0 0];

internalField   nonuniform List<scalar> 
93840
(
4.63254e-07
2.17976e-07
4.63309e-07
4.0501e-07
2.06731e-07
4.52555e-07
3.54736e-07
4.21808e-07
2.6146e-07
4.39872e-07
4.20087e-07
3.8053e-07
4.17955e-07
3.11644e-07
4.39931e-07
3.8601e-07
4.0489e-07
3.85049e-07
4.10984e-07
3.15945e-07
4.19931e-07
4.00842e-07
3.9504e-07
4.05699e-07
3.83341e-07
4.15274e-07
3.48366e-07
4.41946e-07
3.96717e-07
4.00841e-07
3.92858e-07
4.0643e-07
3.91372e-07
4.11725e-07
3.30438e-07
4.19488e-07
3.99967e-07
3.9032e-07
4.00963e-07
3.96308e-07
4.02508e-07
3.92637e-07
4.08695e-07
3.36402e-07
4.40828e-07
3.97079e-07
4.07069e-07
3.96993e-07
3.99187e-07
3.96693e-07
4.01952e-07
3.90616e-07
4.08404e-07
3.30822e-07
4.2567e-07
3.99604e-07
3.93301e-07
4.017e-07
3.95668e-07
4.00573e-07
3.97819e-07
3.99238e-07
3.94539e-07
4.06765e-07
3.43517e-07
4.42258e-07
3.9628e-07
4.0104e-07
3.94735e-07
4.02455e-07
3.9827e-07
3.9914e-07
3.97749e-07
4.01925e-07
3.91379e-07
4.01132e-07
3.37921e-07
4.25037e-07
3.99542e-07
3.9445e-07
4.00204e-07
3.97277e-07
3.99529e-07
3.99018e-07
4.00831e-07
3.95032e-07
4.02161e-07
3.95749e-07
4.02438e-07
3.40424e-07
4.35712e-07
3.98016e-07
4.00214e-07
3.95567e-07
3.9835e-07
3.9755e-07
3.9877e-07
3.98412e-07
4.02005e-07
3.98346e-07
4.01738e-07
3.95536e-07
4.06876e-07
3.37836e-07
4.29114e-07
3.98197e-07
3.97278e-07
4.00089e-07
3.98769e-07
3.98812e-07
3.98563e-07
3.98944e-07
3.97498e-07
3.98827e-07
3.97153e-07
3.99609e-07
3.93466e-07
4.0696e-07
3.41787e-07
4.35736e-07
3.98237e-07
3.99174e-07
3.97383e-07
3.98385e-07
3.98245e-07
3.98683e-07
3.98708e-07
3.99741e-07
3.97787e-07
4.01046e-07
3.97733e-07
4.01871e-07
3.92977e-07
4.03442e-07
3.382e-07
4.29265e-07
3.98386e-07
3.96914e-07
3.99853e-07
3.98446e-07
3.98897e-07
3.98438e-07
3.9851e-07
3.98391e-07
4.00202e-07
3.97851e-07
3.99603e-07
3.97573e-07
3.99755e-07
3.953e-07
4.05744e-07
3.40786e-07
4.33727e-07
3.98166e-07
3.99263e-07
3.96347e-07
3.98498e-07
3.97232e-07
3.98533e-07
3.98431e-07
3.98901e-07
3.9747e-07
3.99875e-07
3.97839e-07
4.00061e-07
3.97278e-07
4.02292e-07
3.9414e-07
4.06724e-07
3.40154e-07
4.291e-07
3.982e-07
3.97917e-07
3.99546e-07
3.97549e-07
3.99554e-07
3.98437e-07
3.98995e-07
3.9781e-07
3.99704e-07
3.98422e-07
3.99548e-07
3.98058e-07
4.00108e-07
3.9761e-07
3.99259e-07
3.93267e-07
4.06289e-07
3.43024e-07
4.32724e-07
3.9828e-07
3.98535e-07
3.97439e-07
3.99624e-07
3.97891e-07
3.98296e-07
3.98403e-07
3.99751e-07
3.98149e-07
3.99139e-07
3.97625e-07
3.99828e-07
3.97902e-07
4.00663e-07
3.97922e-07
4.0257e-07
3.94543e-07
4.04184e-07
3.4159e-07
4.28515e-07
3.98362e-07
3.97971e-07
3.98795e-07
3.97992e-07
3.98918e-07
3.98511e-07
3.98763e-07
3.97854e-07
3.99503e-07
3.98494e-07
3.99933e-07
3.97608e-07
4.00219e-07
3.98404e-07
3.99593e-07
3.97129e-07
3.99414e-07
3.95433e-07
4.05794e-07
3.42898e-07
4.32541e-07
3.98159e-07
3.9858e-07
3.97825e-07
3.98518e-07
3.97662e-07
3.98361e-07
3.98532e-07
3.99094e-07
3.97788e-07
3.98839e-07
3.97667e-07
4.00386e-07
3.97986e-07
3.99661e-07
3.96221e-07
4.00316e-07
3.97247e-07
4.02008e-07
3.93061e-07
4.05717e-07
3.41087e-07
4.29681e-07
3.98515e-07
3.9791e-07
3.9846e-07
3.98292e-07
3.98694e-07
3.98482e-07
3.98747e-07
3.97491e-07
3.99825e-07
3.97683e-07
3.99999e-07
3.97097e-07
3.99863e-07
3.98303e-07
4.00771e-07
3.9865e-07
4.00772e-07
3.96984e-07
3.99944e-07
3.9513e-07
4.059e-07
3.44237e-07
4.33994e-07
3.98009e-07
3.98712e-07
3.9833e-07
3.99003e-07
3.98127e-07
3.9835e-07
3.98491e-07
4.00162e-07
3.96211e-07
3.99378e-07
3.97698e-07
4.00032e-07
3.9737e-07
3.98944e-07
3.96934e-07
4.00373e-07
3.96221e-07
4.00756e-07
3.976e-07
4.02436e-07
3.92755e-07
4.04754e-07
3.42065e-07
4.32612e-07
3.98274e-07
3.97793e-07
3.98453e-07
3.97484e-07
3.98632e-07
3.98473e-07
3.98592e-07
3.97983e-07
4.01497e-07
3.98531e-07
4.00199e-07
3.97411e-07
4.00454e-07
3.97896e-07
4.00629e-07
3.98425e-07
4.00488e-07
3.9868e-07
4.00156e-07
3.96161e-07
4.00042e-07
3.95363e-07
4.03629e-07
3.43927e-07
4.37388e-07
3.98042e-07
3.98691e-07
3.98212e-07
3.98837e-07
3.97882e-07
3.98486e-07
3.98333e-07
3.9863e-07
3.96966e-07
3.98621e-07
3.9717e-07
3.99221e-07
3.97078e-07
3.99928e-07
3.97394e-07
3.98854e-07
3.96587e-07
4.00181e-07
3.96689e-07
4.00704e-07
3.97901e-07
4.02879e-07
3.93615e-07
4.03183e-07
3.39289e-07
4.23852e-07
3.98525e-07
3.98275e-07
3.98536e-07
3.97576e-07
3.98574e-07
3.98307e-07
3.98419e-07
3.9837e-07
3.99049e-07
3.98442e-07
3.99726e-07
3.98266e-07
4.00525e-07
3.97127e-07
3.99735e-07
3.98967e-07
3.9995e-07
3.98403e-07
4.00158e-07
3.99048e-07
3.99553e-07
3.96955e-07
4.01073e-07
3.96176e-07
4.04231e-07
3.44813e-07
4.33258e-07
3.98116e-07
3.98485e-07
3.98312e-07
3.9909e-07
3.98456e-07
3.98778e-07
3.98334e-07
3.99139e-07
3.97811e-07
3.99713e-07
3.97258e-07
3.99458e-07
3.97245e-07
3.99899e-07
3.97412e-07
3.98875e-07
3.97506e-07
3.99654e-07
3.98123e-07
3.99733e-07
3.97038e-07
4.00131e-07
3.97928e-07
4.01379e-07
3.94211e-07
4.04468e-07
3.46307e-07
4.28584e-07
3.98336e-07
3.98301e-07
3.9867e-07
3.9798e-07
3.98511e-07
3.98036e-07
3.98614e-07
3.97486e-07
3.99767e-07
3.97221e-07
3.99732e-07
3.97766e-07
3.99879e-07
3.98045e-07
4.00855e-07
3.98015e-07
4.00101e-07
3.98546e-07
3.9973e-07
3.97832e-07
4.00629e-07
3.98492e-07
4.00047e-07
3.97241e-07
4.002e-07
3.95852e-07
4.03853e-07
3.44915e-07
4.32359e-07
3.98339e-07
3.98453e-07
3.97842e-07
3.98766e-07
3.98413e-07
3.98893e-07
3.98586e-07
4.00227e-07
3.95847e-07
4.00027e-07
3.97221e-07
3.99714e-07
3.97522e-07
3.99257e-07
3.97523e-07
3.99294e-07
3.97682e-07
3.99088e-07
3.97525e-07
3.99426e-07
3.97228e-07
3.99729e-07
3.97683e-07
4.00065e-07
3.98418e-07
4.01051e-07
3.93893e-07
4.04664e-07
3.45695e-07
4.29349e-07
3.98762e-07
3.98161e-07
3.99025e-07
3.98529e-07
3.98655e-07
3.98014e-07
3.98442e-07
3.9808e-07
4.01873e-07
3.98227e-07
4.00093e-07
3.97465e-07
3.99712e-07
3.98138e-07
4.00382e-07
3.97848e-07
4.00347e-07
3.98582e-07
4.00041e-07
3.99432e-07
4.00016e-07
3.98734e-07
3.99841e-07
3.98318e-07
3.99678e-07
3.97328e-07
4.00415e-07
3.95768e-07
4.02656e-07
3.47167e-07
4.31627e-07
3.97833e-07
3.98687e-07
3.97574e-07
3.98546e-07
3.98306e-07
3.9955e-07
3.98564e-07
3.98837e-07
3.96809e-07
3.98523e-07
3.97299e-07
4.00314e-07
3.97522e-07
3.99115e-07
3.97731e-07
3.99366e-07
3.97704e-07
3.99105e-07
3.96908e-07
3.99107e-07
3.97048e-07
3.99061e-07
3.97384e-07
3.99713e-07
3.98033e-07
4.00172e-07
3.98029e-07
4.01433e-07
3.95297e-07
4.02875e-07
3.45941e-07
4.29557e-07
3.98512e-07
3.97874e-07
3.9888e-07
3.98476e-07
3.98381e-07
3.96618e-07
3.9836e-07
3.98509e-07
3.99025e-07
3.98405e-07
4.00012e-07
3.97418e-07
3.99459e-07
3.97991e-07
3.99619e-07
3.98513e-07
3.9954e-07
3.98191e-07
4.00459e-07
3.98884e-07
3.99587e-07
3.98719e-07
3.99429e-07
3.99067e-07
3.99414e-07
3.97748e-07
3.99647e-07
3.97046e-07
4.00469e-07
3.95959e-07
4.03096e-07
3.47517e-07
4.3121e-07
3.98104e-07
3.98603e-07
3.98179e-07
3.98561e-07
3.98362e-07
3.99216e-07
3.98711e-07
3.98892e-07
3.98032e-07
3.99586e-07
3.97717e-07
4.00306e-07
3.97671e-07
3.99183e-07
3.97843e-07
3.98894e-07
3.97734e-07
3.99584e-07
3.97976e-07
3.99195e-07
3.96624e-07
3.99456e-07
3.97871e-07
3.99496e-07
3.97254e-07
4.00052e-07
3.98159e-07
4.00315e-07
3.9788e-07
4.01472e-07
3.94656e-07
4.02626e-07
3.48897e-07
4.30165e-07
3.98336e-07
3.97661e-07
3.98399e-07
3.98356e-07
3.98336e-07
3.98441e-07
3.98325e-07
3.9846e-07
3.99317e-07
3.97857e-07
3.9924e-07
3.97277e-07
3.99943e-07
3.98063e-07
4.00179e-07
3.9823e-07
3.99326e-07
3.98282e-07
3.99266e-07
3.98289e-07
4.00177e-07
3.98351e-07
4.00092e-07
3.98588e-07
3.99424e-07
3.99146e-07
3.99457e-07
3.97922e-07
4.00147e-07
3.97335e-07
4.01069e-07
3.96556e-07
4.00688e-07
3.47048e-07
4.30931e-07
3.97965e-07
3.99068e-07
3.98385e-07
3.98348e-07
3.98323e-07
3.98308e-07
3.9855e-07
3.98888e-07
3.98208e-07
3.99567e-07
3.97838e-07
3.99893e-07
3.97579e-07
3.99657e-07
3.97898e-07
3.98736e-07
3.98259e-07
3.99383e-07
3.98064e-07
3.99573e-07
3.97698e-07
3.99613e-07
3.96843e-07
3.98696e-07
3.97797e-07
3.98996e-07
3.97439e-07
3.99801e-07
3.97761e-07
3.99754e-07
3.9774e-07
4.01334e-07
3.94754e-07
4.0262e-07
3.45451e-07
4.29888e-07
3.984e-07
3.97975e-07
3.98564e-07
3.98322e-07
3.98429e-07
3.98307e-07
3.98462e-07
3.98284e-07
3.99089e-07
3.98133e-07
3.99476e-07
3.97353e-07
4.00017e-07
3.97851e-07
4.00162e-07
3.97986e-07
3.9941e-07
3.98218e-07
3.99435e-07
3.9839e-07
3.99082e-07
3.98683e-07
4.00641e-07
3.99629e-07
3.9953e-07
3.98897e-07
3.99673e-07
3.98786e-07
3.99582e-07
3.98321e-07
4.00286e-07
3.97918e-07
4.01168e-07
3.96728e-07
4.04856e-07
3.4717e-07
4.32071e-07
3.98277e-07
3.98693e-07
3.98467e-07
3.98637e-07
3.98403e-07
3.98553e-07
3.9861e-07
3.98883e-07
3.98009e-07
3.99272e-07
3.97812e-07
4.00017e-07
3.97864e-07
3.99297e-07
3.9754e-07
3.99593e-07
3.98594e-07
3.99117e-07
3.98247e-07
3.98939e-07
3.97984e-07
3.99227e-07
3.96929e-07
3.99114e-07
3.96937e-07
3.98935e-07
3.97963e-07
3.98651e-07
3.97842e-07
3.99468e-07
3.97633e-07
3.99213e-07
3.97683e-07
4.01326e-07
3.94027e-07
4.03285e-07
3.46868e-07
4.29816e-07
3.98535e-07
3.98027e-07
3.98809e-07
3.97918e-07
3.98579e-07
3.9867e-07
3.98772e-07
3.98714e-07
3.99802e-07
3.97831e-07
3.99706e-07
3.97966e-07
4.00008e-07
3.97768e-07
4.00109e-07
3.97948e-07
3.99309e-07
3.98025e-07
3.99243e-07
3.98717e-07
3.99527e-07
3.98418e-07
3.99545e-07
3.99099e-07
3.9978e-07
3.99543e-07
3.99261e-07
3.98781e-07
3.99731e-07
3.98684e-07
3.99804e-07
3.99164e-07
4.0011e-07
3.97392e-07
4.00695e-07
3.96176e-07
4.03284e-07
3.50273e-07
4.31415e-07
3.9834e-07
3.99143e-07
3.98478e-07
3.99395e-07
3.98752e-07
3.98841e-07
3.98855e-07
3.98796e-07
3.98408e-07
3.99569e-07
3.97909e-07
3.99315e-07
3.97595e-07
3.99967e-07
3.97647e-07
3.99798e-07
3.98218e-07
3.99247e-07
3.98177e-07
3.99215e-07
3.97576e-07
3.99085e-07
3.98088e-07
3.99263e-07
3.97169e-07
3.9889e-07
3.97541e-07
3.98624e-07
3.98205e-07
3.98585e-07
3.98016e-07
3.9928e-07
3.97713e-07
3.99913e-07
3.97609e-07
4.0074e-07
3.9494e-07
4.0149e-07
3.47563e-07
4.28718e-07
3.9848e-07
3.98365e-07
3.99081e-07
3.98273e-07
3.98806e-07
3.98848e-07
3.98734e-07
3.98627e-07
3.99051e-07
3.98e-07
3.99608e-07
3.9809e-07
3.99933e-07
3.97824e-07
4.00133e-07
3.98152e-07
3.9953e-07
3.98117e-07
3.99954e-07
3.98305e-07
3.99651e-07
3.98709e-07
3.99381e-07
3.98398e-07
3.99465e-07
3.9913e-07
3.99734e-07
3.98832e-07
3.99545e-07
3.98556e-07
3.99519e-07
3.9875e-07
3.99176e-07
3.98951e-07
4.00016e-07
3.97639e-07
4.00698e-07
3.9638e-07
4.02779e-07
3.47194e-07
4.30748e-07
3.98212e-07
3.98641e-07
3.98032e-07
3.99103e-07
3.98949e-07
3.98832e-07
3.98524e-07
3.98513e-07
3.98512e-07
3.9948e-07
3.97894e-07
3.99862e-07
3.97751e-07
3.99851e-07
3.97716e-07
3.99284e-07
3.98066e-07
3.99293e-07
3.98392e-07
3.98945e-07
3.97644e-07
3.99164e-07
3.97682e-07
3.9904e-07
3.98307e-07
3.99115e-07
3.97789e-07
3.99413e-07
3.98025e-07
3.98653e-07
3.98482e-07
3.99022e-07
3.98035e-07
3.99344e-07
3.97555e-07
4.00283e-07
3.97126e-07
4.01313e-07
3.95385e-07
4.06117e-07
3.4799e-07
4.29093e-07
3.98613e-07
3.98321e-07
3.98761e-07
3.9817e-07
3.98611e-07
3.98522e-07
3.98427e-07
3.98542e-07
3.98988e-07
3.97981e-07
3.99821e-07
3.97956e-07
4.00192e-07
3.98878e-07
4.01002e-07
3.98084e-07
3.99932e-07
3.98616e-07
3.99259e-07
3.98564e-07
4.0022e-07
3.98291e-07
3.99809e-07
3.98552e-07
3.99601e-07
3.98385e-07
3.99284e-07
3.986e-07
3.99299e-07
3.98779e-07
3.99342e-07
3.98498e-07
3.99165e-07
3.98942e-07
3.99104e-07
3.98606e-07
4.00009e-07
3.97636e-07
4.01004e-07
3.94751e-07
4.03837e-07
3.49291e-07
4.30092e-07
3.98112e-07
3.98607e-07
3.98446e-07
3.99048e-07
3.98411e-07
3.98364e-07
3.98425e-07
3.9886e-07
3.98441e-07
3.9932e-07
3.97604e-07
3.99387e-07
3.97927e-07
3.99041e-07
3.97852e-07
3.97691e-07
3.98193e-07
3.99129e-07
3.97814e-07
3.99017e-07
3.98291e-07
3.99144e-07
3.97912e-07
3.99186e-07
3.98149e-07
3.98858e-07
3.9836e-07
3.98961e-07
3.98187e-07
3.99079e-07
3.98087e-07
3.9896e-07
3.98444e-07
3.99295e-07
3.97856e-07
3.99449e-07
3.97582e-07
4.00145e-07
3.9712e-07
4.00568e-07
3.95471e-07
4.0369e-07
3.49702e-07
4.29311e-07
3.98385e-07
3.97921e-07
3.98568e-07
3.97473e-07
3.98285e-07
3.98373e-07
3.98763e-07
3.97701e-07
3.99563e-07
3.98096e-07
3.99866e-07
3.97513e-07
3.99753e-07
3.98517e-07
3.99902e-07
3.9858e-07
4.00776e-07
3.98624e-07
4.00238e-07
3.99334e-07
3.99386e-07
3.98648e-07
4.00039e-07
3.9837e-07
3.99678e-07
3.98468e-07
3.99615e-07
3.98578e-07
3.99429e-07
3.98717e-07
3.99395e-07
3.9847e-07
3.99068e-07
3.98442e-07
3.9895e-07
3.98789e-07
3.99368e-07
3.984e-07
3.99931e-07
3.97843e-07
4.00602e-07
3.95656e-07
4.01686e-07
3.51461e-07
4.29993e-07
3.97321e-07
3.98702e-07
3.98555e-07
3.99777e-07
3.98526e-07
3.98646e-07
3.98619e-07
3.99951e-07
3.95141e-07
3.99554e-07
3.97973e-07
4.001e-07
3.97776e-07
3.99137e-07
3.98121e-07
3.99368e-07
3.98725e-07
3.9852e-07
3.98723e-07
3.97753e-07
3.98161e-07
3.98713e-07
3.98327e-07
3.99119e-07
3.98106e-07
3.98897e-07
3.98246e-07
3.98718e-07
3.98092e-07
3.99063e-07
3.97991e-07
3.99163e-07
3.98295e-07
3.99113e-07
3.98511e-07
3.99471e-07
3.98094e-07
3.99491e-07
3.97829e-07
4.00018e-07
3.97344e-07
4.00326e-07
3.95715e-07
4.01155e-07
3.48546e-07
4.2949e-07
3.99725e-07
3.97607e-07
3.98103e-07
3.97744e-07
3.98627e-07
3.98611e-07
3.98552e-07
3.98484e-07
4.03147e-07
3.99074e-07
3.9947e-07
3.97714e-07
3.99996e-07
3.97955e-07
3.99939e-07
3.98786e-07
4.00128e-07
3.98305e-07
4.00166e-07
3.98047e-07
4.00259e-07
3.98853e-07
3.99497e-07
3.98199e-07
3.99618e-07
3.98369e-07
3.99898e-07
3.98511e-07
3.99758e-07
3.98582e-07
3.99426e-07
3.98886e-07
3.99041e-07
3.98463e-07
3.99112e-07
3.98473e-07
3.9906e-07
3.98595e-07
3.9927e-07
3.9836e-07
4.00143e-07
3.97501e-07
4.00683e-07
3.96479e-07
4.03526e-07
3.47273e-07
4.30006e-07
3.97643e-07
3.99398e-07
3.98531e-07
3.98492e-07
3.98646e-07
3.986e-07
3.98569e-07
3.98523e-07
3.96631e-07
3.97998e-07
3.97253e-07
3.99653e-07
3.98429e-07
3.99541e-07
3.98184e-07
3.99053e-07
3.986e-07
3.98997e-07
3.98956e-07
3.98293e-07
3.99294e-07
3.98166e-07
3.98419e-07
3.9912e-07
3.98443e-07
3.9919e-07
3.98365e-07
3.9854e-07
3.9812e-07
3.99079e-07
3.97797e-07
3.98798e-07
3.9816e-07
3.99291e-07
3.98413e-07
3.98952e-07
3.98461e-07
3.99195e-07
3.98141e-07
3.99454e-07
3.97779e-07
4.00168e-07
3.9729e-07
4.0062e-07
3.95659e-07
4.0612e-07
3.49025e-07
4.29221e-07
3.98481e-07
3.9795e-07
3.9887e-07
3.98479e-07
3.98654e-07
3.9851e-07
3.98515e-07
3.98608e-07
3.98567e-07
3.98746e-07
4.00467e-07
3.98443e-07
3.99251e-07
3.98085e-07
3.99732e-07
3.98396e-07
3.99229e-07
3.98726e-07
4.00022e-07
3.98311e-07
3.99901e-07
3.98531e-07
3.99982e-07
3.98706e-07
3.9961e-07
3.98273e-07
3.99512e-07
3.98363e-07
3.9975e-07
3.986e-07
3.99676e-07
3.98756e-07
3.99437e-07
3.98711e-07
3.99052e-07
3.98195e-07
3.99201e-07
3.98448e-07
3.99195e-07
3.98413e-07
3.99371e-07
3.98089e-07
4.002e-07
3.97548e-07
4.00018e-07
3.94838e-07
4.03814e-07
3.50171e-07
4.29367e-07
3.97566e-07
3.98812e-07
3.9779e-07
3.98479e-07
3.98577e-07
3.98494e-07
3.98569e-07
3.98649e-07
3.98309e-07
3.99438e-07
3.97854e-07
3.99492e-07
3.9743e-07
3.99742e-07
3.98115e-07
3.99176e-07
3.9791e-07
3.99352e-07
3.98605e-07
3.99285e-07
3.98881e-07
3.98542e-07
3.98555e-07
3.98559e-07
3.98581e-07
3.98911e-07
3.98279e-07
3.99153e-07
3.98484e-07
3.98586e-07
3.9809e-07
3.99305e-07
3.979e-07
3.9884e-07
3.98234e-07
3.99442e-07
3.98518e-07
3.98909e-07
3.98494e-07
3.99315e-07
3.98164e-07
3.99378e-07
3.97694e-07
4.00419e-07
3.97227e-07
4.00627e-07
3.95524e-07
4.02748e-07
3.52133e-07
4.29156e-07
3.99649e-07
3.98015e-07
3.98517e-07
3.98674e-07
3.98657e-07
3.98597e-07
3.98479e-07
3.98549e-07
3.99083e-07
3.98224e-07
3.99369e-07
3.98181e-07
4.00677e-07
3.98226e-07
3.99834e-07
3.98875e-07
4.00177e-07
3.98496e-07
3.99248e-07
3.98512e-07
3.99814e-07
3.98465e-07
3.99717e-07
3.98863e-07
3.99716e-07
3.9802e-07
3.99714e-07
3.98518e-07
3.99484e-07
3.98401e-07
3.99619e-07
3.98633e-07
3.99428e-07
3.98927e-07
3.99176e-07
3.98475e-07
3.9906e-07
3.98085e-07
3.99114e-07
3.98344e-07
3.99275e-07
3.98356e-07
3.99472e-07
3.97758e-07
4.00157e-07
3.97301e-07
4.00397e-07
3.96198e-07
4.00814e-07
3.49638e-07
4.29817e-07
3.97342e-07
3.98967e-07
3.99034e-07
3.98586e-07
3.98561e-07
3.98622e-07
3.98625e-07
3.98522e-07
3.98492e-07
3.99439e-07
3.98133e-07
3.99672e-07
3.97752e-07
3.99806e-07
3.98153e-07
3.99408e-07
3.97376e-07
3.99005e-07
3.98439e-07
3.99212e-07
3.98527e-07
3.99244e-07
3.98835e-07
3.986e-07
3.98515e-07
3.98935e-07
3.98924e-07
3.98985e-07
3.98089e-07
3.98955e-07
3.98529e-07
3.98781e-07
3.98128e-07
3.99282e-07
3.97956e-07
3.98964e-07
3.98353e-07
3.99412e-07
3.98476e-07
3.9894e-07
3.98392e-07
3.99456e-07
3.98295e-07
3.99635e-07
3.97809e-07
4.00404e-07
3.97517e-07
4.00585e-07
3.96295e-07
4.03016e-07
3.4876e-07
4.29135e-07
3.99013e-07
3.9758e-07
3.98041e-07
3.98221e-07
3.98557e-07
3.98501e-07
3.98541e-07
3.98499e-07
3.98747e-07
3.98277e-07
3.99123e-07
3.98156e-07
3.99783e-07
3.98107e-07
3.99831e-07
3.98598e-07
4.00244e-07
3.98767e-07
3.99921e-07
3.98441e-07
3.99754e-07
3.98411e-07
3.99717e-07
3.98638e-07
3.99733e-07
3.98555e-07
3.9978e-07
3.98066e-07
3.99668e-07
3.98676e-07
3.99395e-07
3.98471e-07
3.99464e-07
3.98765e-07
3.99192e-07
3.98971e-07
3.99092e-07
3.98454e-07
3.99135e-07
3.98127e-07
3.99094e-07
3.98385e-07
3.99171e-07
3.9819e-07
3.99536e-07
3.97963e-07
4.00024e-07
3.97722e-07
4.00731e-07
3.95943e-07
4.0461e-07
3.49954e-07
4.30101e-07
3.97441e-07
3.99241e-07
3.97459e-07
3.98521e-07
3.98526e-07
3.9849e-07
3.98478e-07
3.98718e-07
3.9846e-07
3.99008e-07
3.98288e-07
3.99582e-07
3.97656e-07
3.99613e-07
3.98228e-07
3.9959e-07
3.98399e-07
3.99352e-07
3.9802e-07
3.99016e-07
3.98272e-07
3.99195e-07
3.98634e-07
3.99141e-07
3.98621e-07
3.98659e-07
3.98568e-07
3.98791e-07
3.98642e-07
3.98956e-07
3.98158e-07
3.99125e-07
3.98315e-07
3.99063e-07
3.98113e-07
3.99251e-07
3.98285e-07
3.99051e-07
3.98366e-07
3.99384e-07
3.98468e-07
3.98919e-07
3.98332e-07
3.99495e-07
3.98286e-07
3.99543e-07
3.98101e-07
3.99845e-07
3.97394e-07
4.00866e-07
3.94677e-07
4.04303e-07
3.50025e-07
4.2965e-07
3.99367e-07
3.98291e-07
4.00049e-07
3.98598e-07
3.98504e-07
3.98552e-07
3.98517e-07
3.98518e-07
3.98909e-07
3.98468e-07
3.99449e-07
3.98201e-07
4.00093e-07
3.9833e-07
4.00253e-07
3.98526e-07
3.99249e-07
3.98448e-07
4.00477e-07
3.98549e-07
3.99802e-07
3.98554e-07
3.99609e-07
3.98385e-07
3.99759e-07
3.98446e-07
3.99615e-07
3.98716e-07
3.99906e-07
3.98325e-07
3.99595e-07
3.98593e-07
3.9917e-07
3.98489e-07
3.99434e-07
3.98695e-07
3.99103e-07
3.98758e-07
3.99023e-07
3.98383e-07
3.99057e-07
3.98331e-07
3.98988e-07
3.98323e-07
3.99099e-07
3.98279e-07
3.99386e-07
3.97922e-07
4.00192e-07
3.97376e-07
4.01035e-07
3.95329e-07
4.03547e-07
3.49856e-07
4.30792e-07
3.97259e-07
3.98606e-07
3.97817e-07
3.98561e-07
3.98446e-07
3.98495e-07
3.985e-07
3.98835e-07
3.98352e-07
3.99516e-07
3.9798e-07
3.99562e-07
3.98458e-07
3.98969e-07
3.97466e-07
3.99728e-07
3.98571e-07
3.99573e-07
3.98244e-07
3.99114e-07
3.98434e-07
3.98854e-07
3.98733e-07
3.98819e-07
3.99048e-07
3.99037e-07
3.98796e-07
3.98882e-07
3.98272e-07
3.98767e-07
3.98604e-07
3.98947e-07
3.98246e-07
3.99256e-07
3.98248e-07
3.99134e-07
3.98152e-07
3.98997e-07
3.98346e-07
3.99285e-07
3.98411e-07
3.99305e-07
3.98435e-07
3.98984e-07
3.9834e-07
3.9937e-07
3.98245e-07
3.99702e-07
3.98233e-07
3.99862e-07
3.97251e-07
4.01247e-07
3.95289e-07
4.04261e-07
3.49895e-07
4.29538e-07
3.99052e-07
3.96543e-07
3.98638e-07
3.97801e-07
3.98445e-07
3.98476e-07
3.98646e-07
3.98555e-07
3.99051e-07
3.98162e-07
4.00094e-07
3.98175e-07
3.99489e-07
3.98342e-07
4.00822e-07
3.98347e-07
3.99555e-07
3.98871e-07
3.99728e-07
3.9858e-07
4.00255e-07
3.98953e-07
3.9938e-07
3.98364e-07
3.99699e-07
3.98069e-07
3.99495e-07
3.98399e-07
3.99541e-07
3.98865e-07
3.9955e-07
3.9846e-07
3.99388e-07
3.98599e-07
3.991e-07
3.98333e-07
3.9934e-07
3.98663e-07
3.99355e-07
3.98636e-07
3.98963e-07
3.98397e-07
3.99098e-07
3.98407e-07
3.99022e-07
3.98426e-07
3.991e-07
3.98208e-07
3.99334e-07
3.9802e-07
4.00154e-07
3.97458e-07
4.00904e-07
3.95207e-07
4.03255e-07
3.51389e-07
4.30608e-07
3.97646e-07
4.01238e-07
3.96452e-07
3.98803e-07
3.98489e-07
3.98568e-07
3.98589e-07
3.98608e-07
3.98456e-07
3.99707e-07
3.9771e-07
4.00429e-07
3.97595e-07
3.99694e-07
3.98354e-07
3.99458e-07
3.98039e-07
3.99001e-07
3.9829e-07
3.9886e-07
3.98537e-07
3.98381e-07
3.98623e-07
3.9953e-07
3.98878e-07
3.98823e-07
3.99422e-07
3.99155e-07
3.98908e-07
3.99024e-07
3.982e-07
3.98873e-07
3.98517e-07
3.99163e-07
3.98369e-07
3.99297e-07
3.98439e-07
3.99266e-07
3.98036e-07
3.98737e-07
3.98307e-07
3.99256e-07
3.984e-07
3.9911e-07
3.98299e-07
3.99003e-07
3.98318e-07
3.9931e-07
3.98345e-07
3.99571e-07
3.98372e-07
3.99979e-07
3.97576e-07
4.00902e-07
3.95275e-07
4.02531e-07
3.52063e-07
4.30171e-07
3.98786e-07
3.97397e-07
4.00521e-07
3.98779e-07
3.98584e-07
3.98605e-07
3.98562e-07
3.98452e-07
3.98577e-07
3.98239e-07
4.00164e-07
3.97435e-07
4.00779e-07
3.98017e-07
3.99499e-07
3.98262e-07
3.99572e-07
3.98419e-07
4.00954e-07
3.98948e-07
3.99909e-07
3.98688e-07
4.0004e-07
3.98858e-07
3.99242e-07
3.98483e-07
3.99171e-07
3.98033e-07
3.99553e-07
3.98401e-07
3.99383e-07
3.98822e-07
3.99457e-07
3.98582e-07
3.99257e-07
3.98559e-07
3.99346e-07
3.98041e-07
3.98984e-07
3.98822e-07
3.99453e-07
3.9839e-07
3.99182e-07
3.98421e-07
3.9919e-07
3.98375e-07
3.99094e-07
3.98396e-07
3.99139e-07
3.98356e-07
3.99183e-07
3.98135e-07
3.99835e-07
3.97611e-07
4.00874e-07
3.95864e-07
4.00538e-07
3.50779e-07
4.30209e-07
3.97446e-07
3.98508e-07
3.98858e-07
3.98489e-07
3.98542e-07
3.9856e-07
3.98524e-07
3.98505e-07
3.98412e-07
3.99339e-07
3.97648e-07
4.00295e-07
3.97993e-07
4.00807e-07
3.98651e-07
3.99073e-07
3.98717e-07
3.99781e-07
3.98163e-07
3.98166e-07
3.98191e-07
3.99049e-07
3.98704e-07
3.98788e-07
3.98701e-07
3.98957e-07
3.98811e-07
3.99021e-07
3.9932e-07
3.99037e-07
3.9896e-07
3.99033e-07
3.98363e-07
3.98936e-07
3.98363e-07
3.99168e-07
3.9839e-07
3.99116e-07
3.98719e-07
3.99517e-07
3.97946e-07
3.98845e-07
3.98283e-07
3.99072e-07
3.9831e-07
3.99063e-07
3.9821e-07
3.98914e-07
3.98336e-07
3.99321e-07
3.98074e-07
3.99396e-07
3.98527e-07
3.99676e-07
3.9793e-07
4.00815e-07
3.96167e-07
4.02995e-07
3.49422e-07
4.29485e-07
3.99289e-07
3.98297e-07
3.97891e-07
3.98471e-07
3.9852e-07
3.98422e-07
3.98507e-07
3.98478e-07
3.98848e-07
3.98247e-07
4.00204e-07
3.97745e-07
3.99758e-07
3.97782e-07
3.99583e-07
3.97803e-07
3.99937e-07
3.98353e-07
3.99622e-07
3.98718e-07
4.00754e-07
3.98878e-07
3.99956e-07
3.98759e-07
3.99527e-07
3.98992e-07
3.99533e-07
3.98516e-07
3.99028e-07
3.98337e-07
3.99724e-07
3.98461e-07
3.99304e-07
3.98641e-07
3.9951e-07
3.98644e-07
3.99231e-07
3.9844e-07
3.99645e-07
3.97866e-07
3.98722e-07
3.98877e-07
3.99424e-07
3.98214e-07
3.9937e-07
3.98494e-07
3.99115e-07
3.98409e-07
3.99184e-07
3.98463e-07
3.99219e-07
3.9829e-07
3.99193e-07
3.98233e-07
3.99498e-07
3.97606e-07
4.00795e-07
3.95606e-07
4.03646e-07
3.51344e-07
4.3011e-07
3.97821e-07
3.98438e-07
3.9842e-07
3.98896e-07
3.98561e-07
3.98495e-07
3.98569e-07
3.98479e-07
3.98384e-07
3.99417e-07
3.97425e-07
4.00137e-07
3.97511e-07
4.0005e-07
3.98329e-07
4.00875e-07
3.98819e-07
3.98813e-07
3.98729e-07
3.99289e-07
3.98081e-07
3.98624e-07
3.98083e-07
3.98908e-07
3.99014e-07
3.9895e-07
3.98771e-07
3.98662e-07
3.98842e-07
3.98862e-07
3.99015e-07
3.98512e-07
3.98816e-07
3.99103e-07
3.98639e-07
3.98867e-07
3.98392e-07
3.99043e-07
3.98521e-07
3.98917e-07
3.98903e-07
3.99531e-07
3.97987e-07
3.99059e-07
3.98248e-07
3.98941e-07
3.98252e-07
3.99022e-07
3.98232e-07
3.98856e-07
3.98325e-07
3.99466e-07
3.98138e-07
3.99382e-07
3.98522e-07
3.99447e-07
3.97902e-07
4.00884e-07
3.95526e-07
4.0331e-07
3.51257e-07
4.29691e-07
3.98835e-07
3.98767e-07
3.9919e-07
3.98456e-07
3.985e-07
3.98447e-07
3.98546e-07
3.98536e-07
3.98642e-07
3.98528e-07
4.0039e-07
3.97507e-07
4.00762e-07
3.97584e-07
4.00339e-07
3.97949e-07
4.00124e-07
3.9823e-07
3.99684e-07
3.9859e-07
3.99771e-07
3.98815e-07
4.00078e-07
3.98931e-07
3.9982e-07
3.98726e-07
3.99419e-07
3.98968e-07
3.99557e-07
3.98534e-07
3.99242e-07
3.98617e-07
3.99815e-07
3.98586e-07
3.99201e-07
3.98569e-07
3.99333e-07
3.98668e-07
3.99261e-07
3.98265e-07
3.99606e-07
3.97802e-07
3.98795e-07
3.98745e-07
3.99451e-07
3.98205e-07
3.99271e-07
3.98538e-07
3.99102e-07
3.98419e-07
3.99126e-07
3.98473e-07
3.99157e-07
3.98038e-07
3.99126e-07
3.98257e-07
3.99885e-07
3.97553e-07
4.00485e-07
3.95769e-07
4.01888e-07
3.53332e-07
4.30148e-07
3.97892e-07
3.98432e-07
3.97477e-07
3.98576e-07
3.98401e-07
3.9861e-07
3.98492e-07
3.98512e-07
3.98537e-07
3.99134e-07
3.97918e-07
4.00233e-07
3.97867e-07
4.00301e-07
3.98765e-07
3.99751e-07
3.98403e-07
3.99458e-07
3.99073e-07
3.99087e-07
3.98579e-07
3.9901e-07
3.98479e-07
3.98892e-07
3.98478e-07
3.9874e-07
3.99096e-07
3.98832e-07
3.98867e-07
3.98703e-07
3.98861e-07
3.98491e-07
3.98825e-07
3.9831e-07
3.98786e-07
3.99147e-07
3.98796e-07
3.98904e-07
3.98504e-07
3.98993e-07
3.9868e-07
3.98925e-07
3.98889e-07
3.9935e-07
3.98126e-07
3.99131e-07
3.98156e-07
3.98845e-07
3.9825e-07
3.99005e-07
3.9823e-07
3.9886e-07
3.98338e-07
3.99523e-07
3.98283e-07
3.99421e-07
3.98405e-07
3.99314e-07
3.97994e-07
4.00875e-07
3.95971e-07
4.01491e-07
3.51435e-07
4.28839e-07
3.98598e-07
3.97988e-07
3.99261e-07
3.98535e-07
3.98606e-07
3.98272e-07
3.98499e-07
3.98576e-07
3.9866e-07
3.98575e-07
3.99671e-07
3.982e-07
4.00005e-07
3.98133e-07
3.99701e-07
3.97839e-07
4.00108e-07
3.97875e-07
4.00144e-07
3.98584e-07
3.9937e-07
3.98904e-07
3.99563e-07
3.98699e-07
3.99584e-07
3.98801e-07
3.99838e-07
3.98804e-07
3.99557e-07
3.98825e-07
3.99396e-07
3.98618e-07
3.99664e-07
3.98747e-07
3.99669e-07
3.98625e-07
3.99001e-07
3.9856e-07
3.99155e-07
3.98609e-07
3.99331e-07
3.98155e-07
3.9939e-07
3.97926e-07
3.98949e-07
3.98555e-07
3.99461e-07
3.9829e-07
3.99172e-07
3.98562e-07
3.99099e-07
3.98403e-07
3.99147e-07
3.98425e-07
3.99187e-07
3.98101e-07
3.99051e-07
3.98246e-07
3.99914e-07
3.97602e-07
4.00724e-07
3.96442e-07
4.02591e-07
3.50962e-07
4.29952e-07
3.97722e-07
3.98879e-07
3.97887e-07
3.98651e-07
3.97673e-07
3.9851e-07
3.98637e-07
3.98501e-07
3.985e-07
3.99309e-07
3.98076e-07
3.99691e-07
3.97673e-07
4.00376e-07
3.97966e-07
3.99547e-07
3.98348e-07
3.99947e-07
3.98865e-07
3.99199e-07
3.98897e-07
3.99351e-07
3.98691e-07
3.99163e-07
3.98757e-07
3.99034e-07
3.98769e-07
3.98626e-07
3.99076e-07
3.98681e-07
3.98874e-07
3.98763e-07
3.98879e-07
3.98029e-07
3.98812e-07
3.98648e-07
3.9886e-07
3.9931e-07
3.98922e-07
3.98579e-07
3.98634e-07
3.98944e-07
3.98781e-07
3.99059e-07
3.98787e-07
3.99195e-07
3.98269e-07
3.99142e-07
3.9811e-07
3.98808e-07
3.98224e-07
3.98995e-07
3.98187e-07
3.98878e-07
3.98359e-07
3.99476e-07
3.98344e-07
3.9946e-07
3.98234e-07
3.99527e-07
3.9766e-07
4.00904e-07
3.95715e-07
4.05478e-07
3.5144e-07
4.28669e-07
3.98688e-07
3.97694e-07
3.98663e-07
3.9755e-07
3.99237e-07
3.98676e-07
3.98527e-07
3.98524e-07
3.98561e-07
3.98354e-07
3.99911e-07
3.9798e-07
4.00267e-07
3.97956e-07
4.00034e-07
3.98195e-07
4.00248e-07
3.98122e-07
3.99215e-07
3.97795e-07
3.99834e-07
3.98562e-07
3.99252e-07
3.98607e-07
3.99382e-07
3.98718e-07
3.99381e-07
3.98773e-07
3.99778e-07
3.98949e-07
3.99607e-07
3.98927e-07
3.99412e-07
3.98629e-07
3.99666e-07
3.98481e-07
3.99324e-07
3.98575e-07
3.98777e-07
3.98641e-07
3.99195e-07
3.986e-07
3.99423e-07
3.981e-07
3.99226e-07
3.9809e-07
3.99038e-07
3.98453e-07
3.99339e-07
3.98409e-07
3.99146e-07
3.98553e-07
3.99169e-07
3.98321e-07
3.99196e-07
3.98369e-07
3.9933e-07
3.98187e-07
3.99328e-07
3.98151e-07
3.99847e-07
3.97853e-07
4.00929e-07
3.94429e-07
4.04418e-07
3.51865e-07
4.29494e-07
3.97731e-07
3.98906e-07
3.98401e-07
3.99647e-07
3.98541e-07
3.98398e-07
3.98569e-07
3.98477e-07
3.98512e-07
3.99228e-07
3.97686e-07
3.99831e-07
3.9795e-07
4.00369e-07
3.98326e-07
4.00179e-07
3.98825e-07
3.99351e-07
3.99029e-07
4.00358e-07
3.98925e-07
3.99469e-07
3.99304e-07
3.99503e-07
3.98852e-07
3.99248e-07
3.98899e-07
3.99166e-07
3.98932e-07
3.9851e-07
3.98927e-07
3.98689e-07
3.98699e-07
3.98801e-07
3.98884e-07
3.98104e-07
3.98972e-07
3.9895e-07
3.9891e-07
3.9937e-07
3.98965e-07
3.9846e-07
3.98631e-07
3.98891e-07
3.98703e-07
3.99237e-07
3.98706e-07
3.99143e-07
3.98305e-07
3.99128e-07
3.98053e-07
3.98818e-07
3.98158e-07
3.98996e-07
3.98237e-07
3.98827e-07
3.98346e-07
3.99316e-07
3.98244e-07
3.99415e-07
3.98348e-07
3.99427e-07
3.97638e-07
4.00925e-07
3.95258e-07
4.05408e-07
3.52044e-07
4.28896e-07
3.98876e-07
3.97777e-07
3.9841e-07
3.98039e-07
3.98383e-07
3.9848e-07
3.98507e-07
3.98407e-07
3.9852e-07
3.98587e-07
3.9993e-07
3.98035e-07
3.9974e-07
3.9839e-07
3.99858e-07
3.98313e-07
3.99473e-07
3.98435e-07
3.99844e-07
3.98184e-07
3.99325e-07
3.98054e-07
3.99225e-07
3.98201e-07
3.99099e-07
3.98663e-07
3.99135e-07
3.98787e-07
3.99131e-07
3.98772e-07
3.99734e-07
3.99096e-07
3.99482e-07
3.99003e-07
3.99334e-07
3.98733e-07
3.99564e-07
3.98559e-07
3.991e-07
3.98569e-07
3.9879e-07
3.98608e-07
3.9937e-07
3.98544e-07
3.99494e-07
3.9815e-07
3.99174e-07
3.98165e-07
3.99149e-07
3.9842e-07
3.99209e-07
3.98499e-07
3.9919e-07
3.98477e-07
3.99177e-07
3.98256e-07
3.9915e-07
3.9837e-07
3.99373e-07
3.98354e-07
3.99385e-07
3.98176e-07
3.99799e-07
3.97691e-07
4.00988e-07
3.94965e-07
4.0433e-07
3.53325e-07
4.29743e-07
3.97901e-07
3.99573e-07
3.98464e-07
3.98464e-07
3.98544e-07
3.98555e-07
3.98577e-07
3.98426e-07
3.98491e-07
3.98842e-07
3.98302e-07
4.0004e-07
3.97985e-07
4.00261e-07
3.9844e-07
3.99834e-07
3.98833e-07
3.9967e-07
3.98751e-07
3.99326e-07
3.99042e-07
3.99494e-07
3.99142e-07
3.99231e-07
3.99729e-07
3.99487e-07
3.9898e-07
3.99264e-07
3.98892e-07
3.99213e-07
3.99017e-07
3.98518e-07