/*--------------------------------*- C++ -*----------------------------------*\
| =========                 |                                                 |
| \\      /  F ield         | OpenFOAM: The Open Source CFD Toolbox           |
|  \\    /   O peration     | Version:  2206                                  |
|   \\  /    A nd           | Website:  www.openfoam.com                      |
|    \\/     M anipulation  |                                                 |
\*---------------------------------------------------------------------------*/
FoamFile
{
    version     2.0;
    format      ascii;
    arch        "LSB;label=32;scalar=64";
    class       volScalarField;
    location    "210";
    object      nuTilda;
}
// * * * * * * * * * * * * * * * * * * * * * * * * * * * * * * * * * * * * * //

dimensions      [0 2 -1 0 0 0 0];

internalField   nonuniform List<scalar> 
93840
(
5.0147e-07
4.66633e-08
5.005e-07
4.09338e-07
7.94045e-09
4.8817e-07
3.13318e-07
4.31023e-07
1.08123e-07
4.69901e-07
4.31968e-07
3.7451e-07
4.29767e-07
2.31054e-07
4.65517e-07
3.80749e-07
4.05281e-07
3.77675e-07
4.11617e-07
2.5902e-07
4.44334e-07
4.01099e-07
3.95217e-07
4.08859e-07
3.64726e-07
4.15065e-07
2.94024e-07
4.6612e-07
3.96711e-07
4.01298e-07
3.92729e-07
4.16682e-07
3.82772e-07
4.12477e-07
2.64774e-07
4.44779e-07
4.00262e-07
3.89888e-07
4.01509e-07
3.92818e-07
4.09874e-07
3.83869e-07
4.15239e-07
2.68075e-07
4.66107e-07
3.97134e-07
4.07895e-07
3.97166e-07
3.99367e-07
3.94065e-07
4.09088e-07
3.87117e-07
4.15471e-07
2.62236e-07
4.51744e-07
3.99724e-07
3.93173e-07
4.02277e-07
3.95961e-07
4.00958e-07
3.96048e-07
3.98414e-07
3.91225e-07
4.12307e-07
2.72841e-07
4.67145e-07
3.9645e-07
4.01326e-07
3.94577e-07
4.02989e-07
3.98399e-07
3.99478e-07
3.97928e-07
4.02936e-07
3.89095e-07
4.06096e-07
2.64968e-07
4.49341e-07
3.99727e-07
3.94524e-07
4.00487e-07
3.97513e-07
3.99957e-07
3.99222e-07
4.01366e-07
3.95138e-07
4.02395e-07
3.94132e-07
4.1009e-07
2.6826e-07
4.6239e-07
3.98096e-07
4.00481e-07
3.95562e-07
3.98532e-07
3.97528e-07
3.99016e-07
3.98707e-07
4.0186e-07
3.98856e-07
4.0169e-07
3.92565e-07
4.13487e-07
2.65919e-07
4.5476e-07
3.98239e-07
3.97313e-07
4.00307e-07
3.99052e-07
3.99104e-07
3.98845e-07
3.99288e-07
3.97662e-07
3.99395e-07
3.9722e-07
3.99987e-07
3.9097e-07
4.11434e-07
2.69173e-07
4.61326e-07
3.98285e-07
3.99271e-07
3.97412e-07
3.98464e-07
3.983e-07
3.98871e-07
3.98819e-07
4.00042e-07
3.98049e-07
4.0147e-07
3.98e-07
4.02152e-07
3.91815e-07
4.08762e-07
2.65549e-07
4.54178e-07
3.98468e-07
3.96875e-07
3.99958e-07
3.98496e-07
3.99074e-07
3.98553e-07
3.98618e-07
3.98447e-07
4.00522e-07
3.9802e-07
3.99865e-07
3.97632e-07
3.9999e-07
3.93684e-07
4.12869e-07
2.69503e-07
4.59415e-07
3.98235e-07
3.99416e-07
3.96419e-07
3.98583e-07
3.97174e-07
3.9863e-07
3.98459e-07
3.99245e-07
3.97659e-07
3.99904e-07
3.98177e-07
4.00513e-07
3.97553e-07
4.02477e-07
3.91353e-07
4.12105e-07
2.69066e-07
4.54302e-07
3.9827e-07
3.9791e-07
3.99632e-07
3.97662e-07
3.99725e-07
3.98565e-07
3.99176e-07
3.97952e-07
3.99836e-07
3.98571e-07
3.99916e-07
3.98133e-07
4.00897e-07
3.98091e-07
3.99617e-07
3.91965e-07
4.10521e-07
2.71546e-07
4.58204e-07
3.98366e-07
3.98626e-07
3.97424e-07
3.99662e-07
3.97895e-07
3.98336e-07
3.98436e-07
3.99901e-07
3.98409e-07
3.99444e-07
3.97488e-07
4.00262e-07
3.9827e-07
4.0073e-07
3.97792e-07
4.02902e-07
3.93613e-07
4.09667e-07
2.69573e-07
4.54132e-07
3.98462e-07
3.98056e-07
3.98891e-07
3.98085e-07
3.99014e-07
3.98587e-07
3.98908e-07
3.97942e-07
3.99495e-07
3.98412e-07
4.00447e-07
3.9796e-07
4.00502e-07
3.97517e-07
3.99945e-07
3.96993e-07
3.99398e-07
3.92699e-07
4.12333e-07
2.71238e-07
4.58917e-07
3.9827e-07
3.98712e-07
3.97873e-07
3.98611e-07
3.97703e-07
3.98441e-07
3.98536e-07
3.99329e-07
3.97834e-07
3.99247e-07
3.97255e-07
4.00453e-07
3.98282e-07
4.0016e-07
3.96881e-07
4.014e-07
3.97307e-07
4.02708e-07
3.91159e-07
4.10985e-07
2.70909e-07
4.56259e-07
3.98615e-07
3.9802e-07
3.98584e-07
3.9842e-07
3.98839e-07
3.98595e-07
3.98957e-07
3.97281e-07
4.00044e-07
3.97703e-07
4.00624e-07
3.97145e-07
3.99594e-07
3.97857e-07
4.01533e-07
3.98524e-07
4.01412e-07
3.9742e-07
4.00349e-07
3.93095e-07
4.10483e-07
2.7369e-07
4.61503e-07
3.9804e-07
3.98818e-07
3.98394e-07
3.99131e-07
3.98196e-07
3.98458e-07
3.98559e-07
4.00502e-07
3.96633e-07
3.99603e-07
3.97439e-07
4.00447e-07
3.978e-07
3.99553e-07
3.97099e-07
4.00311e-07
3.96514e-07
4.00661e-07
3.97044e-07
4.0289e-07
3.91283e-07
4.08457e-07
2.7079e-07
4.59374e-07
3.9831e-07
3.97751e-07
3.98564e-07
3.97571e-07
3.9875e-07
3.98553e-07
3.98726e-07
3.97981e-07
4.01207e-07
3.98694e-07
4.00699e-07
3.97192e-07
4.00528e-07
3.97989e-07
4.00767e-07
3.98437e-07
4.00894e-07
3.99107e-07
4.00583e-07
3.96811e-07
4.00686e-07
3.94154e-07
4.08236e-07
2.71568e-07
4.57671e-07
3.98102e-07
3.9888e-07
3.98163e-07
3.98992e-07
3.97887e-07
3.98541e-07
3.98389e-07
3.98792e-07
3.97332e-07
3.98502e-07
3.9713e-07
3.99459e-07
3.97043e-07
3.99683e-07
3.9795e-07
3.98782e-07
3.96783e-07
4.00205e-07
3.96916e-07
4.00807e-07
3.98371e-07
4.03743e-07
3.92377e-07
4.0936e-07
2.71416e-07
4.47986e-07
3.98597e-07
3.98253e-07
3.98654e-07
3.97524e-07
3.98628e-07
3.98351e-07
3.98521e-07
3.98327e-07
3.99386e-07
3.98381e-07
4.00183e-07
3.9835e-07
4.01005e-07
3.9747e-07
4.0001e-07
3.99074e-07
4.00749e-07
3.99453e-07
4.0048e-07
3.99525e-07
3.99595e-07
3.97592e-07
3.99825e-07
3.94613e-07
4.10497e-07
2.80315e-07
4.62088e-07
3.9822e-07
3.98629e-07
3.98266e-07
3.99174e-07
3.98548e-07
3.98852e-07
3.9833e-07
3.99401e-07
3.97664e-07
4.00096e-07
3.97056e-07
3.99655e-07
3.97311e-07
4.00207e-07
3.97726e-07
3.99302e-07
3.97255e-07
3.99695e-07
3.97376e-07
4.00476e-07
3.96619e-07
4.01019e-07
3.98183e-07
4.0119e-07
3.92005e-07
4.09404e-07
2.75911e-07
4.53038e-07
3.98474e-07
3.98361e-07
3.9888e-07
3.98034e-07
3.98612e-07
3.98103e-07
3.98766e-07
3.97277e-07
4.00086e-07
3.97121e-07
4.00049e-07
3.97945e-07
3.99991e-07
3.98251e-07
4.00793e-07
3.98305e-07
4.00322e-07
3.98893e-07
3.99832e-07
3.97491e-07
4.0082e-07
3.99213e-07
4.00134e-07
3.98009e-07
4.00236e-07
3.93684e-07
4.08971e-07
2.76522e-07
4.58394e-07
3.98452e-07
3.98622e-07
3.97824e-07
3.98968e-07
3.98497e-07
3.98967e-07
3.98675e-07
4.00599e-07
3.96262e-07
4.00156e-07
3.97343e-07
3.99874e-07
3.97763e-07
3.99704e-07
3.9742e-07
3.99261e-07
3.97931e-07
3.99292e-07
3.98144e-07
3.99924e-07
3.98138e-07
3.99541e-07
3.97785e-07
4.00194e-07
3.98177e-07
4.01839e-07
3.92321e-07
4.08165e-07
2.79729e-07
4.54262e-07
3.98892e-07
3.9819e-07
3.99261e-07
3.98642e-07
3.98802e-07
3.98112e-07
3.98568e-07
3.98085e-07
4.01421e-07
3.98616e-07
4.00339e-07
3.97593e-07
3.99541e-07
3.98379e-07
4.00589e-07
3.98147e-07
4.00558e-07
3.98099e-07
4.0025e-07
3.99066e-07
4.00061e-07
3.98806e-07
4.00174e-07
3.9872e-07
4.00323e-07
3.97249e-07
4.00934e-07
3.95238e-07
4.06366e-07
2.79153e-07
4.5727e-07
3.97942e-07
3.98951e-07
3.97613e-07
3.98673e-07
3.98383e-07
3.99697e-07
3.98731e-07
3.99025e-07
3.97292e-07
3.98459e-07
3.9712e-07
4.00065e-07
3.97944e-07
3.99204e-07
3.98032e-07
3.99019e-07
3.97966e-07
3.99509e-07
3.97177e-07
3.99327e-07
3.96266e-07
3.98995e-07
3.97571e-07
3.99691e-07
3.97349e-07
4.00834e-07
3.97859e-07
4.01838e-07
3.9309e-07
4.08892e-07
2.79508e-07
4.54816e-07
3.98582e-07
3.978e-07
3.99129e-07
3.9867e-07
3.98509e-07
3.96814e-07
3.98457e-07
3.98578e-07
3.99267e-07
3.9859e-07
4.00766e-07
3.97749e-07
3.99267e-07
3.98149e-07
3.99793e-07
3.98404e-07
4.00255e-07
3.98402e-07
4.00734e-07
3.98371e-07
4.00528e-07
3.99873e-07
4.00618e-07
3.98975e-07
4.00328e-07
3.98255e-07
4.00196e-07
3.97432e-07
4.00859e-07
3.93398e-07
4.07625e-07
2.84248e-07
4.57253e-07
3.98164e-07
3.98951e-07
3.98179e-07
3.98698e-07
3.98476e-07
3.99252e-07
3.98891e-07
3.99111e-07
3.98082e-07
3.99806e-07
3.97422e-07
4.00325e-07
3.97968e-07
3.99728e-07
3.98027e-07
3.98953e-07
3.97604e-07
3.99498e-07
3.97798e-07
3.99394e-07
3.96127e-07
3.99955e-07
3.97277e-07
3.99623e-07
3.97273e-07
4.00332e-07
3.98323e-07
4.0121e-07
3.98088e-07
4.02372e-07
3.93287e-07
4.03599e-07
2.88163e-07
4.55142e-07
3.98406e-07
3.97397e-07
3.98637e-07
3.9849e-07
3.98418e-07
3.98575e-07
3.98399e-07
3.98534e-07
3.99548e-07
3.97936e-07
3.99569e-07
3.97449e-07
4.00021e-07
3.98049e-07
4.003e-07
3.98459e-07
3.99999e-07
3.98643e-07
4.00012e-07
3.98216e-07
4.01005e-07
3.99036e-07
3.99716e-07
3.98648e-07
3.99435e-07
3.99425e-07
3.99599e-07
3.97938e-07
3.99847e-07
3.97755e-07
4.01052e-07
3.94549e-07
3.99257e-07
2.81202e-07
4.55976e-07
3.98006e-07
3.99419e-07
3.9832e-07
3.98462e-07
3.98348e-07
3.98364e-07
3.98585e-07
3.9906e-07
3.98266e-07
3.99809e-07
3.97686e-07
4.00283e-07
3.97934e-07
4.00019e-07
3.9796e-07
3.98436e-07
3.98141e-07
3.99477e-07
3.98042e-07
3.99482e-07
3.97871e-07
4.00212e-07
3.98117e-07
3.98512e-07
3.97992e-07
3.99612e-07
3.97211e-07
4.0032e-07
3.98174e-07
4.00311e-07
3.98521e-07
4.01917e-07
3.95244e-07
4.06556e-07
2.77325e-07
4.5622e-07
3.98501e-07
3.97922e-07
3.98732e-07
3.98354e-07
3.98551e-07
3.98352e-07
3.98581e-07
3.98333e-07
3.99373e-07
3.98106e-07
3.99873e-07
3.97532e-07
3.99961e-07
3.97867e-07
4.00404e-07
3.98565e-07
4.00179e-07
3.98439e-07
3.99228e-07
3.98389e-07
3.99153e-07
3.98206e-07
4.00053e-07
3.99673e-07
4.00504e-07
3.99179e-07
3.99626e-07
3.99335e-07
3.99655e-07
3.98676e-07
3.99905e-07
3.97911e-07
4.01878e-07
3.94815e-07
4.12382e-07
2.82385e-07
4.5704e-07
3.98347e-07
3.98975e-07
3.98504e-07
3.98795e-07
3.98544e-07
3.98673e-07
3.98759e-07
3.99101e-07
3.98023e-07
3.9964e-07
3.97494e-07
4.00481e-07
3.9814e-07
3.99807e-07
3.97742e-07
3.99162e-07
3.98438e-07
3.99159e-07
3.98558e-07
3.9929e-07
3.98102e-07
3.99894e-07
3.97603e-07
3.98727e-07
3.96751e-07
3.98714e-07
3.97769e-07
3.99217e-07
3.97564e-07
4.00199e-07
3.98798e-07
3.99835e-07
3.9705e-07
4.00923e-07
3.90419e-07
4.07789e-07
2.84816e-07
4.54303e-07
3.98726e-07
3.97916e-07
3.98998e-07
3.97993e-07
3.98749e-07
3.98802e-07
3.98987e-07
3.98865e-07
4.00067e-07
3.9794e-07
4.00468e-07
3.97974e-07
4.00136e-07
3.97618e-07
4.00765e-07
3.98711e-07
3.99516e-07
3.97706e-07
3.99871e-07
3.9798e-07
3.99939e-07
3.98594e-07
3.99852e-07
3.99299e-07
3.99964e-07
4.00083e-07
3.99546e-07
3.991e-07
4.00017e-07
3.99141e-07
3.99617e-07
3.99268e-07
4.01223e-07
3.97927e-07
4.0025e-07
3.94601e-07
4.05184e-07
2.91599e-07
4.55556e-07
3.9847e-07
3.99655e-07
3.98612e-07
3.99577e-07
3.98955e-07
3.99008e-07
3.99055e-07
3.98963e-07
3.98461e-07
3.99699e-07
3.97902e-07
3.9956e-07
3.97546e-07
4.00126e-07
3.97926e-07
3.99302e-07
3.98243e-07
3.9994e-07
3.98301e-07
3.99835e-07
3.97694e-07
3.99158e-07
3.98071e-07
3.99408e-07
3.97382e-07
3.99657e-07
3.96474e-07
3.9936e-07
3.9787e-07
3.98701e-07
3.98028e-07
3.99047e-07
3.97437e-07
4.00058e-07
3.9805e-07
4.01467e-07
3.92994e-07
3.99158e-07
2.8197e-07
4.53274e-07
3.98803e-07
3.98302e-07
3.99418e-07
3.98521e-07
3.99027e-07
3.99013e-07
3.98941e-07
3.98727e-07
3.99485e-07
3.98054e-07
4.00064e-07
3.98226e-07
4.00461e-07
3.97997e-07
4.00206e-07
3.98672e-07
3.99422e-07
3.98581e-07
4.00246e-07
3.97729e-07
4.00058e-07
3.98748e-07
3.99925e-07
3.98733e-07
3.99626e-07
3.99599e-07
4.00721e-07
3.9992e-07
3.99714e-07
3.99097e-07
4.00403e-07
3.98996e-07
3.99824e-07
3.98989e-07
4.00833e-07
3.97099e-07
4.02013e-07
3.96251e-07
4.08337e-07
2.80248e-07
4.56026e-07
3.98133e-07
3.99015e-07
3.97834e-07
3.99342e-07
3.99147e-07
3.98973e-07
3.98638e-07
3.98623e-07
3.98451e-07
3.99838e-07
3.98023e-07
4.00315e-07
3.98335e-07
4.00521e-07
3.97794e-07
3.99369e-07
3.98363e-07
3.98879e-07
3.98403e-07
3.99552e-07
3.97697e-07
3.99553e-07
3.97213e-07
3.99442e-07
3.98272e-07
3.99242e-07
3.96844e-07
3.98795e-07
3.97876e-07
3.98841e-07
3.98109e-07
3.98874e-07
3.98047e-07
3.99696e-07
3.9719e-07
4.0054e-07
3.97404e-07
4.02351e-07
3.92951e-07
4.13938e-07
2.845e-07
4.53388e-07
3.9896e-07
3.98241e-07
3.99483e-07
3.98355e-07
3.98766e-07
3.98617e-07
3.98534e-07
3.98597e-07
3.99388e-07
3.9786e-07
3.99982e-07
3.98192e-07
3.9979e-07
3.99089e-07
3.99752e-07
3.98725e-07
4.002e-07
3.98322e-07
4.01095e-07
3.98368e-07
4.00651e-07
3.98834e-07
4.01293e-07
3.99351e-07
3.99577e-07
3.98647e-07
3.99987e-07
3.99623e-07
3.99266e-07
3.98774e-07
4.00166e-07
3.98569e-07
4.00159e-07
3.98727e-07
3.99821e-07
3.99033e-07
4.00034e-07
3.97941e-07
4.00072e-07
3.91766e-07
4.0781e-07
2.86017e-07
4.55411e-07
3.98046e-07
3.98882e-07
3.9831e-07
3.99196e-07
3.9849e-07
3.98417e-07
3.9844e-07
3.99122e-07
3.9844e-07
3.99704e-07
3.97546e-07
3.99607e-07
3.98443e-07
3.99319e-07
3.97589e-07
3.98093e-07
3.98163e-07
3.98939e-07
3.98138e-07
3.99227e-07
3.98495e-07
3.99093e-07
3.97748e-07
3.98924e-07
3.97819e-07
3.99113e-07
3.98247e-07
3.99519e-07
3.9804e-07
3.99801e-07
3.97636e-07
3.98715e-07
3.98252e-07
3.9933e-07
3.97839e-07
4.00129e-07
3.97413e-07
4.00415e-07
3.97664e-07
4.00384e-07
3.93741e-07
4.07366e-07
2.88016e-07
4.54142e-07
3.98466e-07
3.97873e-07
3.98737e-07
3.97468e-07
3.98344e-07
3.98458e-07
3.9895e-07
3.97496e-07
3.99975e-07
3.98068e-07
4.00398e-07
3.97696e-07
4.00027e-07
3.9868e-07
4.00499e-07
3.99501e-07
4.03214e-07
3.98912e-07
4.01137e-07
3.99519e-07
3.99355e-07
3.98847e-07
4.0012e-07
3.98722e-07
4.00022e-07
3.98566e-07
4.00084e-07
3.98277e-07
3.99873e-07
3.98648e-07
3.99752e-07
3.99067e-07
3.99756e-07
3.98621e-07
3.99695e-07
3.99196e-07
3.99536e-07
3.99149e-07
4.00154e-07
3.98385e-07
4.00722e-07
3.93198e-07
4.03173e-07
2.91741e-07
4.54961e-07
3.97128e-07
3.98861e-07
3.98655e-07
3.99881e-07
3.98638e-07
3.98767e-07
3.98773e-07
4.00296e-07
3.95586e-07
3.9966e-07
3.97968e-07
4.00114e-07
3.97957e-07
3.99383e-07
3.97934e-07
3.9976e-07
3.9803e-07
3.9776e-07
3.97627e-07
3.98237e-07
3.97452e-07
3.9936e-07
3.97655e-07
3.98774e-07
3.98032e-07
3.99429e-07
3.97887e-07
3.9936e-07
3.97992e-07
3.99128e-07
3.98405e-07
3.98915e-07
3.98293e-07
3.99324e-07
3.98487e-07
3.99837e-07
3.97784e-07
3.99667e-07
3.97764e-07
4.00905e-07
3.96825e-07
4.01012e-07
3.94506e-07
4.02481e-07
2.83397e-07
4.53937e-07
4.00291e-07
3.97663e-07
3.98268e-07
3.97839e-07
3.98759e-07
3.98735e-07
3.98684e-07
3.98533e-07
4.02659e-07
3.99384e-07
3.99833e-07
3.98168e-07
4.00134e-07
3.98288e-07
4.01168e-07
3.99637e-07
4.00289e-07
3.98846e-07
4.00287e-07
3.99485e-07
4.00698e-07
3.99436e-07
4.00291e-07
3.9876e-07
4.00417e-07
3.98836e-07
3.99841e-07
3.9849e-07
4.00484e-07
3.98541e-07
3.99399e-07
3.99141e-07
3.99735e-07
3.98686e-07
3.99234e-07
3.98478e-07
3.98996e-07
3.98821e-07
3.99622e-07
3.98478e-07
4.00569e-07
3.97741e-07
4.01298e-07
3.95763e-07
4.09502e-07
2.83148e-07
4.54354e-07
3.97441e-07
3.99682e-07
3.98552e-07
3.98658e-07
3.98873e-07
3.98712e-07
3.98677e-07
3.98598e-07
3.97277e-07
3.98233e-07
3.97285e-07
3.99717e-07
3.98493e-07
3.99611e-07
3.98174e-07
3.98854e-07
3.98161e-07
3.99448e-07
3.98888e-07
3.98484e-07
3.99217e-07
3.98302e-07
3.9821e-07
3.9916e-07
3.98427e-07
3.99215e-07
3.98201e-07
3.98733e-07
3.98292e-07
3.99167e-07
3.98122e-07
3.99333e-07
3.97715e-07
3.99691e-07
3.97988e-07
3.99346e-07
3.98363e-07
3.99786e-07
3.97823e-07
3.99965e-07
3.97419e-07
4.00793e-07
3.97532e-07
4.00358e-07
3.92909e-07
4.12573e-07
2.89458e-07
4.5311e-07
3.98741e-07
3.98036e-07
3.99184e-07
3.98601e-07
3.98829e-07
3.98583e-07
3.98603e-07
3.98672e-07
3.98762e-07
3.98769e-07
4.0104e-07
3.98445e-07
3.99881e-07
3.98158e-07
4.00015e-07
3.97993e-07
4.00328e-07
3.98649e-07
4.00682e-07
3.98442e-07
4.00458e-07
3.97759e-07
4.00641e-07
3.98803e-07
4.00003e-07
3.98253e-07
3.99822e-07
3.98716e-07
4.00113e-07
3.98657e-07
4.00325e-07
3.98896e-07
3.99928e-07
3.98893e-07
3.9964e-07
3.9857e-07
3.99297e-07
3.98556e-07
3.99746e-07
3.98603e-07
3.99552e-07
3.98062e-07
4.00889e-07
3.97439e-07
4.00601e-07
3.92059e-07
4.05225e-07
2.90778e-07
4.54141e-07
3.97501e-07
3.99047e-07
3.97765e-07
3.98592e-07
3.98749e-07
3.98587e-07
3.98652e-07
3.98805e-07
3.98355e-07
3.99824e-07
3.98024e-07
3.9985e-07
3.97505e-07
4.00208e-07
3.98542e-07
4.00042e-07
3.98083e-07
3.9957e-07
3.98301e-07
3.99223e-07
3.98997e-07
3.98538e-07
3.99273e-07
3.98347e-07
3.97791e-07
3.99247e-07
3.98765e-07
3.99147e-07
3.98444e-07
3.98655e-07
3.98062e-07
3.99115e-07
3.98106e-07
3.9872e-07
3.97821e-07
3.99598e-07
3.98235e-07
3.99116e-07
3.98166e-07
3.99753e-07
3.98223e-07
4.00205e-07
3.97252e-07
4.00754e-07
3.96999e-07
4.01427e-07
3.94901e-07
4.03441e-07
2.93499e-07
4.54134e-07
3.99904e-07
3.97901e-07
3.98698e-07
3.98811e-07
3.98812e-07
3.98677e-07
3.98571e-07
3.98662e-07
3.9933e-07
3.98321e-07
3.99741e-07
3.98112e-07
4.01221e-07
3.98947e-07
4.00085e-07
3.98052e-07
4.00023e-07
3.99258e-07
3.99483e-07
3.9885e-07
4.00393e-07
3.9879e-07
4.00177e-07
3.98689e-07
4.00697e-07
3.99141e-07
3.99951e-07
3.98228e-07
3.99559e-07
3.98711e-07
4.00129e-07
3.98969e-07
3.99775e-07
3.99021e-07
3.99766e-07
3.99019e-07
3.99359e-07
3.98157e-07
3.99644e-07
3.98457e-07
3.9965e-07
3.98599e-07
4.00333e-07
3.9832e-07
4.00359e-07
3.98469e-07
4.0053e-07
3.94543e-07
4.0051e-07
2.8544e-07
4.54196e-07
3.97346e-07
3.99276e-07
3.9906e-07
3.9874e-07
3.98654e-07
3.9878e-07
3.98714e-07
3.9866e-07
3.98607e-07
3.99632e-07
3.98278e-07
4.00143e-07
3.97856e-07
3.9933e-07
3.9831e-07
4.00267e-07
3.97765e-07
3.99047e-07
3.98097e-07
4.00475e-07
3.98289e-07
3.99425e-07
3.99038e-07
3.98915e-07
3.98275e-07
3.98958e-07
3.9838e-07
3.99138e-07
3.9866e-07
3.99017e-07
3.98379e-07
3.98784e-07
3.98499e-07
3.98944e-07
3.98293e-07
3.99128e-07
3.9839e-07
3.99796e-07
3.9852e-07
3.99016e-07
3.98472e-07
3.99621e-07
3.97865e-07
3.99939e-07
3.98388e-07
4.00234e-07
3.98284e-07
4.01709e-07
3.95445e-07
4.09307e-07
2.84995e-07
4.53762e-07
3.9913e-07
3.97511e-07
3.9826e-07
3.98284e-07
3.98637e-07
3.98636e-07
3.98667e-07
3.98613e-07
3.98978e-07
3.98444e-07
3.99628e-07
3.97926e-07
4.00454e-07
3.9837e-07
4.0072e-07
3.98708e-07
4.00491e-07
3.99423e-07
4.00935e-07
3.98227e-07
4.0007e-07
3.98697e-07
3.99898e-07
3.98237e-07
4.00121e-07
3.99058e-07
4.00078e-07
3.97962e-07
3.9999e-07
3.98703e-07
4.00728e-07
3.98112e-07
4.00257e-07
3.98512e-07
3.99524e-07
3.99376e-07
3.99423e-07
3.98621e-07
3.99279e-07
3.98568e-07
3.9922e-07
3.98363e-07
3.9947e-07
3.98395e-07
3.99625e-07
3.98361e-07
3.99564e-07
3.97206e-07
4.01749e-07
3.92472e-07
4.13256e-07
2.88382e-07
4.55029e-07
3.97408e-07
3.99393e-07
3.97409e-07
3.98624e-07
3.98668e-07
3.98643e-07
3.98597e-07
3.98884e-07
3.98554e-07
3.99435e-07
3.98437e-07
4.00125e-07
3.97838e-07
4.00461e-07
3.98881e-07
3.99183e-07
3.98404e-07
4.00057e-07
3.97532e-07
3.99031e-07
3.98624e-07
3.9898e-07
3.98762e-07
3.99719e-07
3.98517e-07
3.98895e-07
3.9863e-07
3.99263e-07
3.99356e-07
3.99078e-07
3.97881e-07
3.98608e-07
3.98608e-07
3.99251e-07
3.98125e-07
3.99306e-07
3.97726e-07
3.99167e-07
3.98212e-07
3.99488e-07
3.98773e-07
3.98984e-07
3.98179e-07
3.99591e-07
3.98427e-07
3.99923e-07
3.98092e-07
4.00796e-07
3.96854e-07
4.01607e-07
3.90618e-07
4.09511e-07
2.86953e-07
4.54626e-07
3.99478e-07
3.98385e-07
4.00229e-07
3.98735e-07
3.98694e-07
3.9872e-07
3.98651e-07
3.98644e-07
3.99207e-07
3.98477e-07
3.9988e-07
3.98472e-07
4.00272e-07
3.98076e-07
4.00395e-07
3.98915e-07
4.00016e-07
3.98227e-07
4.00645e-07
3.99682e-07
3.9975e-07
3.99455e-07
3.99495e-07
3.99072e-07
3.99769e-07
3.9912e-07
4.00326e-07
3.98313e-07
3.99568e-07
3.98511e-07
3.99506e-07
3.9902e-07
3.99854e-07
3.98389e-07
3.99766e-07
3.99018e-07
3.99395e-07
3.99098e-07
3.99816e-07
3.9869e-07
3.99351e-07
3.98345e-07
3.99507e-07
3.98667e-07
3.99243e-07
3.98036e-07
3.99986e-07
3.98321e-07
4.00426e-07
3.97537e-07
4.01682e-07
3.93703e-07
4.10223e-07
2.88301e-07
4.5492e-07
3.97195e-07
3.98782e-07
3.97923e-07
3.98658e-07
3.98595e-07
3.98624e-07
3.98602e-07
3.98995e-07
3.9841e-07
4.00047e-07
3.98024e-07
3.99723e-07
3.98548e-07
3.99846e-07
3.97641e-07
3.98785e-07
3.98552e-07
3.99973e-07
3.98939e-07
3.98385e-07
3.98743e-07
3.99513e-07
3.98062e-07
3.99672e-07
3.9848e-07
3.98682e-07
3.98866e-07
3.99033e-07
3.98767e-07
3.9853e-07
3.98796e-07
3.99176e-07
3.98456e-07
3.99391e-07
3.98307e-07
3.98991e-07
3.97911e-07
3.99489e-07
3.98096e-07
3.99092e-07
3.98467e-07
3.9958e-07
3.9845e-07
3.99178e-07
3.98564e-07
3.99713e-07
3.98334e-07
3.99787e-07
3.98568e-07
4.00287e-07
3.97828e-07
4.00971e-07
3.92185e-07
4.09798e-07
2.91737e-07
4.53735e-07
3.99216e-07
3.96596e-07
3.98891e-07
3.97913e-07
3.98632e-07
3.98587e-07
3.98749e-07
3.98671e-07
3.99286e-07
3.98143e-07
4.00773e-07
3.97971e-07
4.00447e-07
3.98315e-07
4.01582e-07
3.99021e-07
4.00461e-07
3.9869e-07
3.98989e-07
3.99233e-07
4.00241e-07
3.9899e-07
4.00699e-07
3.99115e-07
3.99953e-07
3.99318e-07
4.00752e-07
3.98913e-07
4.00082e-07
3.98947e-07
4.00194e-07
3.98499e-07
4.00391e-07
3.98939e-07
3.99922e-07
3.98568e-07
3.99595e-07
3.98541e-07
3.9905e-07
3.98431e-07
3.99386e-07
3.98521e-07
3.99168e-07
3.98152e-07
3.99318e-07
3.98282e-07
3.99275e-07
3.98707e-07
3.9928e-07
3.98313e-07
4.00674e-07
3.9832e-07
4.00632e-07
3.92847e-07
4.0577e-07
2.94335e-07
4.55474e-07
3.97369e-07
4.01455e-07
3.9656e-07
3.98917e-07
3.98633e-07
3.98651e-07
3.98716e-07
3.98714e-07
3.98578e-07
4.00111e-07
3.97732e-07
4.00914e-07
3.97793e-07
3.99261e-07
3.98627e-07
3.98377e-07
3.98181e-07
4.00886e-07
3.98862e-07
4.00018e-07
3.98472e-07
3.99716e-07
3.98568e-07
3.97977e-07
3.98989e-07
3.98133e-07
3.98757e-07
3.99584e-07
3.98891e-07
3.98712e-07
3.98566e-07
3.98716e-07
3.98654e-07
3.98827e-07
3.98333e-07
3.99442e-07
3.98106e-07
3.99393e-07
3.98624e-07
3.99496e-07
3.97905e-07
3.99826e-07
3.98343e-07
3.99622e-07
3.98189e-07
3.99289e-07
3.98287e-07
3.99736e-07
3.9836e-07
3.99565e-07
3.98719e-07
3.99536e-07
3.9796e-07
4.01361e-07
3.94196e-07
4.02483e-07
2.96522e-07
4.53466e-07
3.99409e-07
3.9754e-07
4.00479e-07
3.98932e-07
3.9873e-07
3.98713e-07
3.98653e-07
3.98535e-07
3.98844e-07
3.9824e-07
4.00645e-07
3.97691e-07
4.01525e-07
3.98877e-07
4.00108e-07
3.98709e-07
4.0078e-07
3.98695e-07
3.99394e-07
3.98419e-07
4.00705e-07
3.98727e-07
4.00496e-07
3.99598e-07
3.99776e-07
3.98267e-07
3.9973e-07
3.98544e-07
3.99316e-07
3.98951e-07
3.99772e-07
3.99236e-07
3.99957e-07
3.98388e-07
3.99436e-07
3.98504e-07
3.99439e-07
3.98786e-07
3.9968e-07
3.98726e-07
3.99806e-07
3.98625e-07
3.99136e-07
3.98437e-07
3.99281e-07
3.98386e-07
3.99331e-07
3.986e-07
3.99547e-07
3.97806e-07
3.99264e-07
3.98583e-07
3.99502e-07
3.98375e-07
4.01034e-07
3.94948e-07
4.00085e-07
2.9105e-07
4.53351e-07
3.97222e-07
3.98652e-07
3.99105e-07
3.98564e-07
3.98666e-07
3.98664e-07
3.98625e-07
3.98616e-07
3.98512e-07
3.99825e-07
3.97653e-07
4.00172e-07
3.98518e-07
3.99881e-07
3.98373e-07
3.99813e-07
3.98796e-07
3.99772e-07
3.98624e-07
3.99176e-07
3.98123e-07
3.99206e-07
3.99289e-07
3.97809e-07
3.9891e-07
4.00185e-07
3.98995e-07
3.98986e-07
3.99886e-07
3.98583e-07
3.98788e-07
3.99214e-07
3.98122e-07
3.99406e-07
3.98664e-07
3.99278e-07
3.98205e-07
4.00299e-07
3.98324e-07
3.98665e-07
3.98287e-07
3.99003e-07
3.97795e-07
3.99731e-07
3.98573e-07
3.99105e-07
3.98436e-07
3.99295e-07
3.98475e-07
3.99901e-07
3.98129e-07
3.99866e-07
3.9872e-07
3.99426e-07
3.97869e-07
4.01357e-07
3.95522e-07
4.07695e-07
2.8961e-07
4.53567e-07
3.99495e-07
3.98368e-07
3.97976e-07
3.98555e-07
3.98632e-07
3.98568e-07
3.98591e-07
3.98584e-07
3.99108e-07
3.98164e-07
4.00876e-07
3.97691e-07
4.00657e-07
3.97973e-07
4.00718e-07
3.97759e-07
3.99976e-07
3.98627e-07
3.99776e-07
3.98512e-07
4.0157e-07
3.98923e-07
4.00251e-07
3.99514e-07
4.0061e-07
3.99121e-07
3.98731e-07
3.98778e-07
4.00332e-07
3.97988e-07
3.99752e-07
3.98455e-07
3.99875e-07
3.99471e-07
3.99429e-07
3.98828e-07
3.9925e-07
3.98873e-07
3.99091e-07
3.98567e-07
3.9946e-07
3.98847e-07
4.00393e-07
3.98443e-07
3.99161e-07
3.9846e-07
3.99472e-07
3.98594e-07
3.99167e-07
3.98407e-07
3.99649e-07
3.9835e-07
3.99431e-07
3.98342e-07
4.00056e-07
3.9751e-07
4.01513e-07
3.94039e-07
4.10386e-07
2.9434e-07
4.54383e-07
3.97828e-07
3.98567e-07
3.98358e-07
3.99037e-07
3.98637e-07
3.98617e-07
3.98693e-07
3.98609e-07
3.98577e-07
3.99881e-07
3.97486e-07
4.00805e-07
3.97637e-07
4.00289e-07
3.98557e-07
4.00935e-07
4.00454e-07
3.98844e-07
3.99201e-07
3.99567e-07
3.99208e-07
3.9736e-07
3.98726e-07
3.98746e-07
3.98813e-07
3.98783e-07
3.98758e-07
3.99214e-07
3.99103e-07
3.98617e-07
3.9973e-07
3.99802e-07
3.99556e-07
3.99297e-07
3.98568e-07
3.98486e-07
3.98773e-07
3.99314e-07
3.98523e-07
3.99049e-07
3.98615e-07
3.99748e-07
3.9798e-07
3.99089e-07
3.98162e-07
3.98898e-07
3.98499e-07
3.99347e-07
3.98195e-07
3.98968e-07
3.98405e-07
3.99456e-07
3.97633e-07
3.99586e-07
3.98543e-07
4.00515e-07
3.97959e-07
4.0066e-07
3.92635e-07
4.06617e-07
2.95335e-07
4.53277e-07
3.98964e-07
3.98744e-07
3.99432e-07
3.98589e-07
3.98607e-07
3.98609e-07
3.98663e-07
3.98699e-07
3.98856e-07
3.98602e-07
4.00784e-07
3.97958e-07
4.01094e-07
3.99e-07
4.01474e-07
3.98162e-07
3.99351e-07
3.98574e-07
4.00292e-07
3.98469e-07
3.99379e-07
3.98775e-07
4.01794e-07
3.99148e-07
4.00085e-07
3.99271e-07
3.99595e-07
3.99372e-07
4.00005e-07
3.99066e-07
3.98377e-07
3.97913e-07
3.99175e-07
3.98631e-07
3.99293e-07
3.99519e-07
3.9889e-07
3.99294e-07
3.99571e-07
3.98843e-07
3.99689e-07
3.98283e-07
3.98581e-07
3.99043e-07
3.9988e-07
3.98317e-07
3.9931e-07
3.98656e-07
3.9934e-07
3.98523e-07
3.99547e-07
3.98596e-07
3.99626e-07
3.98732e-07
3.99513e-07
3.98051e-07
3.99671e-07
3.97934e-07
4.0107e-07
3.93959e-07
4.03259e-07
3.00283e-07
4.52929e-07
3.97921e-07
3.98637e-07
3.97426e-07
3.98692e-07
3.98486e-07
3.98777e-07
3.98638e-07
3.98681e-07
3.98693e-07
3.99489e-07
3.98159e-07
4.00303e-07
3.98415e-07
3.99035e-07
3.98621e-07
3.99302e-07
3.9843e-07
3.99906e-07
3.9944e-07
3.99065e-07
3.99976e-07
3.99925e-07
3.98395e-07
3.98249e-07
3.98728e-07
3.99196e-07
3.99729e-07
3.99605e-07
3.98987e-07
3.98461e-07
3.98865e-07
3.99628e-07
3.99249e-07
3.98601e-07
3.9906e-07
3.9897e-07
3.98899e-07
3.98848e-07
3.98347e-07
3.99458e-07
3.9835e-07
3.98776e-07
3.99195e-07
4.00087e-07
3.97656e-07
3.99329e-07
3.98348e-07
3.98945e-07
3.98214e-07
3.99241e-07
3.98096e-07
3.99126e-07
3.98207e-07
3.99778e-07
3.98419e-07
3.99582e-07
3.9844e-07
3.99945e-07
3.97814e-07
4.01629e-07
3.94856e-07
4.01122e-07
2.92323e-07
4.52387e-07
3.98696e-07
3.98002e-07
3.99514e-07
3.98638e-07
3.9877e-07
3.98464e-07
3.98623e-07
3.98753e-07
3.98881e-07
3.98568e-07
4.00135e-07
3.98169e-07
4.00597e-07
3.98117e-07
4.00453e-07
3.97478e-07
4.00737e-07
3.98456e-07
4.00486e-07
3.98064e-07
4.00513e-07
3.98335e-07
4.00263e-07
3.99844e-07
4.00278e-07
3.99841e-07
3.99851e-07
3.98631e-07
3.99368e-07
3.98875e-07
3.99991e-07
3.98756e-07
3.99111e-07
3.98964e-07
4.00527e-07
3.99173e-07
3.99706e-07
3.98848e-07
3.99899e-07
3.98762e-07
3.99469e-07
3.9868e-07
4.0028e-07
3.97622e-07
3.98838e-07
3.99186e-07
3.99468e-07
3.9821e-07
3.99528e-07
3.9861e-07
3.9952e-07
3.98248e-07
3.99497e-07
3.9855e-07
3.99447e-07
3.98139e-07
3.99814e-07
3.97927e-07
4.00797e-07
3.97462e-07
4.0122e-07
3.95275e-07
4.09246e-07
2.90667e-07
4.53343e-07
3.97717e-07
3.9909e-07
3.97904e-07
3.988e-07
3.97778e-07
3.98631e-07
3.98816e-07
3.98663e-07
3.9862e-07
3.99738e-07
3.98119e-07
4.00366e-07
3.97848e-07
4.00637e-07
3.9844e-07
4.00065e-07
3.99441e-07
3.9942e-07
3.98679e-07
3.99623e-07
3.99506e-07
3.98935e-07
3.99145e-07
3.98783e-07
3.98765e-07
3.99031e-07
3.98654e-07
3.98533e-07
3.98954e-07
3.99411e-07
3.98592e-07
3.99163e-07
3.99213e-07
3.99109e-07
3.98845e-07
3.98056e-07
3.98747e-07
3.98867e-07
3.99029e-07
3.9813e-07
3.98746e-07
3.99277e-07
3.98474e-07
3.98969e-07
3.99305e-07
3.99466e-07
3.98139e-07
3.99024e-07
3.98561e-07
3.99061e-07
3.98286e-07
3.99405e-07
3.98288e-07
3.9916e-07
3.98199e-07
3.99963e-07
3.98241e-07
4.00356e-07
3.9831e-07
3.99501e-07
3.98406e-07
4.01884e-07
3.91757e-07
4.14806e-07
2.94141e-07
4.51637e-07
3.988e-07
3.9771e-07
3.98867e-07
3.97633e-07
3.99347e-07
3.98898e-07
3.98691e-07
3.98666e-07
3.98741e-07
3.98358e-07
4.00309e-07
3.9818e-07
4.00988e-07
3.98649e-07
4.00661e-07
3.99178e-07
4.00734e-07
3.98941e-07
4.01056e-07
3.98027e-07
4.0028e-07
3.99494e-07
3.99822e-07
3.98903e-07
4.00767e-07
3.98684e-07
4.00222e-07
3.99223e-07
4.00231e-07
3.99393e-07
3.99676e-07
3.99378e-07
3.99982e-07
3.98719e-07
3.9937e-07
3.98778e-07
4.00718e-07
3.99053e-07
3.99782e-07
3.99061e-07
3.99045e-07
3.99049e-07
3.99391e-07
3.98294e-07
3.99798e-07
3.98257e-07
3.99209e-07
3.98649e-07
3.9962e-07
3.98357e-07
3.99435e-07
3.98271e-07
3.99321e-07
3.98526e-07
3.99212e-07
3.98478e-07
3.99388e-07
3.98037e-07
3.99398e-07
3.98646e-07
3.99961e-07
3.97631e-07
4.01366e-07
3.91276e-07
4.10654e-07
2.94739e-07
4.53554e-07
3.97611e-07
3.99137e-07
3.98428e-07
3.99746e-07
3.9875e-07
3.98546e-07
3.9873e-07
3.98623e-07
3.98636e-07
3.99567e-07
3.97927e-07
3.99988e-07
3.98566e-07
4.00279e-07
3.9896e-07
3.99173e-07
3.99041e-07
3.98897e-07
3.99347e-07
3.9935e-07
4.00124e-07
3.98407e-07
3.98953e-07
3.99806e-07
3.98592e-07
3.98862e-07
3.99431e-07
3.98647e-07
3.99162e-07
3.98889e-07
3.99266e-07
3.98986e-07
3.98655e-07
3.98812e-07
3.99279e-07
3.98418e-07
3.99176e-07
3.98553e-07
3.98983e-07
3.99374e-07
3.99035e-07
3.99706e-07
3.98456e-07
3.99297e-07
3.9881e-07
3.99314e-07
3.98897e-07
3.9981e-07
3.98269e-07
3.98968e-07
3.9824e-07
3.99382e-07
3.9802e-07
3.99376e-07
3.98075e-07
3.98953e-07
3.98392e-07
3.99407e-07
3.98724e-07
3.99694e-07
3.98462e-07
3.9991e-07
3.97596e-07
4.00904e-07
3.93777e-07
4.1083e-07
2.97539e-07
4.52536e-07
3.99109e-07
3.97804e-07
3.98685e-07
3.98203e-07
3.98576e-07
3.98633e-07
3.98653e-07
3.98508e-07
3.98686e-07
3.98703e-07
4.00314e-07
3.98319e-07
4.0045e-07
3.9875e-07
3.99658e-07
3.9914e-07
3.99881e-07
3.98154e-07
4.00697e-07
3.98097e-07
3.98751e-07
3.98648e-07
3.99833e-07
3.99039e-07
3.99585e-07
3.99674e-07
3.99404e-07
3.98971e-07
3.99833e-07
3.98844e-07
3.99904e-07
3.98683e-07
3.99993e-07
3.98641e-07
3.99561e-07
3.9896e-07
4.00291e-07
3.99272e-07
3.99907e-07
3.98895e-07
3.98973e-07
3.98724e-07
3.98735e-07
3.98595e-07
3.99681e-07
3.98313e-07
3.9972e-07
3.97944e-07
3.99278e-07
3.9864e-07
3.99276e-07
3.98487e-07
3.99712e-07
3.98607e-07
3.99744e-07
3.98458e-07
3.99214e-07
3.98303e-07
3.99014e-07
3.98311e-07
3.99157e-07
3.98529e-07
4.00174e-07
3.98403e-07
4.00604e-07
3.92904e-07
4.04703e-07
3.01134e-07
4.52649e-07
3.97889e-07
3.99806e-07
3.98593e-07
3.98617e-07
3.98687e-07
3.98694e-07
3.98708e-07
3.98532e-07
3.98588e-07
3.9913e-07
3.98436e-07
4.00374e-07
3.98033e-07
4.00826e-07
3.98554e-07
3.99934e-07
3.98741e-07
4.00347e-07
3.99853e-07
3.9949e-07
3.99272e-07
4.00615e-07
4.00221e-07
3.99432e-07
3.9906e-07
3.98972e-07
3.99333e-07
3.99558e-07
3.98699e-07
3.99361e-07
3.99469e-07