/*--------------------------------*- C++ -*----------------------------------*\
| =========                 |                                                 |
| \\      /  F ield         | OpenFOAM: The Open Source CFD Toolbox           |
|  \\    /   O peration     | Version:  2206                                  |
|   \\  /    A nd           | Website:  www.openfoam.com                      |
|    \\/     M anipulation  |                                                 |
\*---------------------------------------------------------------------------*/
FoamFile
{
    version     2.0;
    format      ascii;
    arch        "LSB;label=32;scalar=64";
    class       volScalarField;
    location    "210";
    object      p;
}
// * * * * * * * * * * * * * * * * * * * * * * * * * * * * * * * * * * * * * //

dimensions      [1 -1 -2 0 0 0 0];

internalField   nonuniform List<scalar> 
93840
(
2.89786
0.417433
2.94193
1.58833
0.40973
2.88993
0.445518
1.20075
0.484985
2.53643
1.14274
0.958634
1.20702
0.609932
2.38033
0.970228
1.05702
0.952383
1.42252
0.699824
2.3622
1.05945
0.954194
1.10962
0.678635
1.34386
0.703596
2.40444
0.962889
1.05889
0.937463
1.16827
0.753877
1.36199
0.736104
2.4337
1.06239
0.950895
1.11155
0.995672
1.12799
0.788868
1.21634
0.721666
2.46286
0.965647
1.05857
0.938256
1.10752
0.992514
1.10516
0.998088
1.18178
0.722291
2.48158
1.05609
0.951769
1.10868
0.997734
1.09179
1.01355
1.06114
1.01787
1.1615
0.718091
2.49524
0.96007
1.05463
0.932812
1.10107
0.987265
1.07518
1.0068
1.08489
1.03303
1.14176
0.720777
2.50224
1.05697
0.961329
1.1093
1.00069
1.08959
1.0074
1.08007
1.01388
1.07862
1.02215
1.13501
0.719325
2.50862
0.962322
1.04565
0.92784
1.09421
0.985077
1.07062
1.01382
1.07514
1.02649
1.07399
1.03216
1.1279
0.723081
2.51211
1.05659
0.958607
1.10138
0.996376
1.08629
0.999826
1.09002
1.00192
1.08575
1.0151
1.08294
1.02517
1.12502
0.7218
2.51511
0.950221
1.04686
0.929598
1.09465
0.988398
1.06615
1.01381
1.07197
1.01938
1.06681
1.02874
1.07067
1.03529
1.12097
0.724818
2.51621
1.06205
0.944942
1.09957
0.996857
1.0874
0.995194
1.09444
1.00316
1.08561
1.00761
1.08355
1.01607
1.08043
1.02495
1.11907
0.725042
2.51713
0.96133
1.06332
0.939401
1.08703
0.987573
1.06021
1.01356
1.06803
1.01028
1.07367
1.02217
1.06835
1.03008
1.0732
1.03618
1.11624
0.728527
2.51698
1.05641
0.95838
1.08705
0.99182
1.08841
0.993212
1.08958
0.995858
1.08439
1.00369
1.08181
1.01676
1.08625
1.01657
1.0774
1.02602
1.11506
0.728752
2.51665
0.952419
1.04339
0.923281
1.08145
0.988646
1.05679
1.01666
1.06841
1.00961
1.07329
1.01865
1.0783
1.02928
1.06733
1.03779
1.07188
1.03569
1.11278
0.732103
2.51564
1.05604
0.939523
1.08323
0.998168
1.08708
0.988914
1.0887
0.999309
1.08886
1.00087
1.08598
1.00473
1.08449
1.01513
1.08744
1.02268
1.07837
1.02563
1.1117
0.732449
2.51422
0.951
1.04843
0.955405
1.07506
0.982374
1.05205
1.01454
1.06531
1.01262
1.07058
1.01078
1.0754
1.02239
1.0763
1.03075
1.06893
1.03492
1.06996
1.03121
1.11022
0.736413
2.51273
1.05727
0.956941
1.08091
0.984964
1.08699
0.98821
1.08728
0.99249
1.07791
0.996519
1.08697
1.01324
1.08687
1.00967
1.08332
1.0217
1.08813
1.02834
1.0797
1.0234
1.1099
0.736456
2.51116
0.956752
1.05552
0.947119
1.06768
0.990694
1.05151
1.01776
1.06291
1.00784
1.06929
1.00666
1.07033
1.01612
1.07723
1.01809
1.07903
1.03322
1.06912
1.03114
1.07018
1.03022
1.10889
0.739957
2.50933
1.04848
0.960223
1.0595
0.98139
1.08557
0.982429
1.08576
0.991802
1.07722
0.997532
1.0798
1.00125
1.08093
1.00736
1.08887
1.0123
1.08628
1.02138
1.08618
1.03551
1.07555
1.02271
1.10891
0.740286
2.50772
0.945255
1.02199
0.936634
1.06472
0.991089
1.04767
1.01796
1.05958
1.01411
1.06306
1.01137
1.07203
1.01282
1.07422
1.01098
1.07987
1.0227
1.07928
1.03249
1.06953
1.02627
1.07242
1.02885
1.10807
0.744587
2.50555
1.05027
0.937392
1.0753
0.993636
1.08312
0.977707
1.0863
0.995778
1.07799
0.995647
1.0821
1.00062
1.0849
1.00784
1.08288
1.00622
1.08564
1.01752
1.09343
1.02598
1.0837
1.03527
1.07699
1.02017
1.10829
0.744718
2.50314
0.939905
1.05377
0.979055
1.05733
0.987058
1.04264
1.01808
1.0558
1.01079
1.05907
1.01079
1.06811
1.01612
1.06949
1.0071
1.07515
1.02187
1.08032
1.02536
1.0802
1.03403
1.07434
1.02846
1.07374
1.03058
1.1078
0.749801
2.50035
1.05155
0.961722
1.0264
0.960855
1.07781
0.978572
1.08318
0.99521
1.08104
0.994013
1.0746
1.00248
1.07824
1.00881
1.07688
1.00464
1.08789
1.00829
1.08938
1.02325
1.09237
1.029
1.09084
1.04377
1.07317
1.01894
1.10847
0.750356
2.49759
0.957258
1.0175
1.01564
1.05159
0.999366
1.04282
1.01183
1.05931
1.00611
1.06211
1.01511
1.05636
1.01102
1.06515
1.00949
1.06996
1.01898
1.07551
1.01888
1.08117
1.02336
1.07932
1.03456
1.07528
1.03729
1.07204
1.03058
1.10842
0.755894
2.49402
1.04807
0.990883
1.01054
0.959264
1.08197
0.974835
1.07571
0.999788
1.08183
1.00108
1.07707
0.997833
1.07303
1.00354
1.07596
1.002
1.08633
1.01911
1.08472
1.01116
1.09246
1.02345
1.0935
1.03028
1.08065
1.01973
1.07535
1.01984
1.10952
0.755987
2.49043
0.953852
1.01844
0.952822
1.05139
0.999982
1.03752
1.0086
1.06046
1.00608
1.06048
1.01655
1.05672
1.00371
1.06047
1.01134
1.06957
1.0157
1.07519
1.02293
1.07729
1.01646
1.08233
1.02352
1.08364
1.03619
1.07376
1.03713
1.0707
1.03214
1.10966
0.764077
2.48571
1.04275
0.956534
1.03855
0.979588
1.07747
0.979552
1.07351
1.00405
1.07307
0.99867
1.06819
0.995983
1.07548
1.00528
1.07556
1.00026
1.07631
1.00621
1.07953
1.02672
1.08489
1.01326
1.0904
1.02577
1.09451
1.02963
1.08586
1.01689
1.08045
1.01746
1.11059
0.764388
2.48094
0.94164
1.03593
0.964343
1.03943
0.992222
1.03554
1.00764
1.05523
0.998431
1.06133
1.00921
1.05944
1.00746
1.05618
1.01062
1.0633
1.01831
1.06882
1.01123
1.07047
1.01257
1.07682
1.03187
1.08363
1.02849
1.08382
1.03741
1.07488
1.034
1.07926
1.03222
1.11089
0.77379
2.4787
1.04342
0.95299
1.04713
0.968431
1.07755
0.984966
1.06778
1.00256
1.0734
1.00113
1.07313
0.999029
1.06989
1.00314
1.07341
1.00152
1.07466
0.999392
1.07532
1.01165
1.0762
1.02431
1.08664
1.01219
1.09042
1.03107
1.09093
1.02761
1.09058
1.0142
1.08132
1.01425
1.11812
0.74267
2.47456
0.946697
1.02854
0.965153
1.03401
0.996677
1.03789
1.00547
1.05102
1.00068
1.05526
1.01358
1.05949
1.00547
1.05617
1.00802
1.05479
1.01065
1.0617
1.01751
1.06908
1.0119
1.07255
1.02156
1.07835
1.02596
1.08683
1.0304
1.08081
1.03668
1.07713
1.02839
1.07804
1.03009
1.14488
0.748856
2.47036
1.04298
0.981537
1.02928
0.963209
1.07476
0.982735
1.06342
1.00423
1.07085
1.00676
1.07256
0.999946
1.07336
1.00492
1.07181
1.00131
1.07264
1.00519
1.07578
1.0035
1.07778
1.01169
1.08365
1.02425
1.08978
1.01703
1.09378
1.02503
1.08735
1.02485
1.09012
1.0116
1.08752
1.00207
1.14021
0.757125
2.46546
0.95921
1.01857
1.00426
1.034
0.999221
1.0377
1.00461
1.05057
1.00102
1.05172
1.00691
1.05704
1.01215
1.06065
1.00706
1.05515
1.01027
1.05513
1.01473
1.06272
1.01709
1.06394
1.01441
1.07453
1.01884
1.08415
1.02899
1.08675
1.02895
1.07987
1.03161
1.08433
1.02858
1.07614
1.02062
1.1344
0.761354
2.46146
1.03626
0.983759
0.989512
0.946145
1.06905
0.98298
1.05785
1.0011
1.06651
1.00356
1.0748
1.00565
1.07667
1.00579
1.07294
1.01223
1.07097
1.00287
1.07212
1.00694
1.07734
1.00541
1.0826
1.01243
1.08564
1.01787
1.09503
1.02224
1.08976
1.02316
1.08864
1.02849
1.09496
1.01529
1.08828
1.00917
1.13109
0.770863
2.45825
0.961049
1.01764
0.954561
1.02741
0.999868
1.03738
1.00227
1.04811
1.00262
1.05024
1.00333
1.05441
1.01246
1.05749
1.01167
1.05573
1.00895
1.05439
1.01543
1.05577
1.01421
1.06342
1.00764
1.06768
1.01915
1.07425
1.01879
1.08521
1.03837
1.08656
1.02342
1.08066
1.03312
1.08556
1.02547
1.08162
1.02454
1.13479
0.74049
2.45406
1.03009
0.964268
1.02308
0.965938
1.06783
0.982785
1.05695
1.00603
1.06178
1.01361
1.06656
1.00305
1.07289
1.00435
1.07551
1.00374
1.0704
1.01819
1.0621
0.998893
1.07423
1.01819
1.08048
1.01814
1.08037
1.00948
1.08991
1.02032
1.08536
1.02608
1.09553
1.02677
1.09322
1.02662
1.09436
1.01371
1.09588
1.00931
1.15169
0.749766
2.44982
0.959222
1.02018
0.965919
1.01784
0.998732
1.03534
0.998325
1.04555
1.00808
1.04495
1.00376
1.04929
1.00899
1.0546
1.01027
1.05573
1.01613
1.05943
1.00666
1.05641
1.01958
1.06533
1.0121
1.06283
1.01484
1.07215
1.0242
1.07509
1.03338
1.08482
1.02677
1.08537
1.03381
1.08482
1.0317
1.08471
1.02499
1.08531
1.01467
1.14908
0.755515
2.44575
1.03421
0.950575
0.996258
0.969942
1.06574
0.984947
1.05531
1.00791
1.05572
1.00356
1.06171
0.998164
1.06175
0.997247
1.07467
0.996551
1.07376
1.00192
1.05454
1.02315
1.06214
0.997501
1.05875
1.02435
1.0768
1.01591
1.08603
1.01364
1.08708
1.02394
1.08877
1.02668
1.09537
1.02981
1.09168
1.0268
1.09487
1.01469
1.09142
1.00801
1.14324
0.764851
2.44122
0.9651
1.02527
0.985256
1.0179
0.997603
1.03444
0.998959
1.04392
1.00392
1.04583
1.00588
1.05318
1.00963
1.04701
1.0133
1.05902
1.00693
1.0556
1.01804
1.05427
1.01096
1.05691
1.02262
1.05839
1.01063
1.06445
1.01931
1.07134
1.03028
1.0759
1.02415
1.08876
1.03627
1.08872
1.03997
1.08402
1.03215
1.08727
1.02441
1.08717
1.01535
1.13591
0.768379
2.43739
1.02733
0.970146
1.00434
0.956423
1.05769
0.983314
1.04805
1.00643
1.05481
1.00087
1.05757
1.00625
1.05617
0.999342
1.05967
0.998082
1.05823
1.00981
1.05706
1.02379
1.05419
1.02206
1.06571
1.00929
1.06195
1.01856
1.07713
1.02465
1.0791
1.00914
1.07632
1.02066
1.08642
1.03706
1.08783
1.03533
1.08148
1.0284
1.09691
1.01652
1.08969
1.01532
1.13126
0.777422
2.4351
0.966944
1.02061
0.958518
1.01471
0.998189
1.03523
1.00004
1.0447
0.999076
1.04671
1.00368
1.04646
1.02529
1.0474
0.997475
1.05066
1.02321
1.05851
1.01567
1.05965
1.01721
1.05611
1.01542
1.05839
1.01754
1.06007
1.01367
1.06079
1.02123
1.07738
1.02734
1.0758
1.026
1.08309
1.05057
1.08489
1.04027
1.08275
1.02968
1.0908
1.02561
1.08883
1.01904
1.1352
0.749711
2.43104
1.01578
0.982921
1.01798
0.959203
1.05343
0.985805
1.0475
1.00516
1.0515
1.00227
1.05167
1.01532
1.04822
0.986196
1.04696
1.0131
1.06125
1.01628
1.05722
1.01981
1.05239
1.02126
1.0558
1.01937
1.06703
1.01434
1.06506
1.02354
1.07147
1.01826
1.07863
1.01865
1.08109
1.03485
1.07959
1.04591
1.08102
1.03434
1.08226
1.02975
1.09691
1.01577
1.09279
1.01793
1.15362
0.756774
2.42707
0.959454
1.01522
0.963348
1.00993
0.993647
1.03467
0.999152
1.04209
1.00242
1.0472
1.00452
1.03848
1.01627
1.04224
1.01938
1.04959
1.01138
1.05347
1.01528
1.06433
1.02356
1.06102
1.01807
1.0574
1.01713
1.05762
1.02367
1.06012
1.01373
1.0614
1.02445
1.07563
1.02364
1.08005
1.0407
1.07596
1.05279
1.08274
1.03105
1.08504
1.02922
1.09268
1.02133
1.08498
1.00822
1.14845
0.763027
2.42298
1.02329
0.965421
1.00556
0.9526
1.04985
0.990568
1.04733
1.00218
1.04513
1.00434
1.05064
1.00078
1.04998
0.997652
1.04812
1.01158
1.04499
1.0146
1.0614
1.01638
1.0579
1.02057
1.0538
1.02072
1.05623
1.02122
1.0686
1.0156
1.06418
1.01752
1.06916
1.017
1.07913
1.02257
1.08138
1.04358
1.0723
1.04416
1.08453
1.02947
1.0888
1.03201
1.09907
1.01834
1.09571
1.01571
1.14287
0.767055
2.41958
0.951684
1.02409
0.972013
1.0095
0.991063
1.03555
0.998327
1.03836
1.00253
1.04364
0.995294
1.0476
1.0068
1.0411
1.01502
1.04515
1.01562
1.05799
1.01235
1.05227
1.02547
1.059
1.02235
1.05965
1.01921
1.05934
1.02241
1.0563
1.01826
1.0621
1.01325
1.06166
1.01901
1.07454
1.03486
1.07759
1.04573
1.07092
1.04206
1.08878
1.02593
1.08744
1.03147
1.09188
1.02338
1.08624
1.01678
1.13728
0.772525
2.41568
1.02987
0.959673
0.995119
0.948718
1.04754
0.993363
1.04522
1.0053
1.04354
0.999457
1.04658
0.997281
1.04737
1.00001
1.05391
1.01406
1.04216
1.0111
1.05188
1.01795
1.06039
1.02523
1.05635
1.01904
1.05659
1.01984
1.05533
1.0197
1.05795
1.01874
1.06751
1.01785
1.07194
1.01882
1.07449
1.03356
1.07482
1.04335
1.07061
1.03892
1.09233
1.03267
1.08817
1.03333
1.09079
1.01461
1.09859
1.01831
1.13218
0.776164
2.41165
0.973735
1.01898
0.982035
1.00873
0.990885
1.03493
0.998594
1.03646
1.00248
1.04135
0.999399
1.0438
1.00267
1.04544
1.01151
1.04352
1.02056
1.04697
1.02494
1.04996
1.01186
1.0517
1.02369
1.05766
1.02239
1.05977
1.01876
1.05973
1.02282
1.05811
1.02037
1.0637
1.01345
1.05811
1.0346
1.07025
1.04037
1.07137
1.0421
1.07382
1.03569
1.09615
1.03369
1.08585
1.03238
1.09097
1.01773
1.09339
1.02533
1.12788
0.781825
2.40707
1.01714
0.97007
0.993309
0.949292
1.04726
0.992301
1.04505
1.00538
1.04414
0.994997
1.04057
1.00061
1.05354
1.00367
1.04757
1.00387
1.05169
1.01806
1.04387
1.0192
1.05102
1.01232
1.05964
1.01537
1.06177
1.0227
1.05733
1.02153
1.05766
1.02475
1.05662
1.02111
1.06798
1.01715
1.07671
1.02795
1.07718
1.04059
1.06938
1.03837
1.07824
1.03456
1.096
1.03772
1.08433
1.02971
1.0932
1.00841
1.09767
1.02382
1.12451
0.783845
2.40342
0.97204
1.01215
0.981061
1.00563
0.986874
1.03254
1.00054
1.038
1.00341
1.03758
1.01268
1.0431
0.998517
1.04053
1.00513
1.04605
1.01914
1.04279
1.0196
1.04743
1.01943
1.05609
1.01994
1.05045
1.02077
1.06001
1.02279
1.05618
1.01924
1.05759
1.02503
1.05878
1.01868
1.06597
1.01598
1.0588
1.033
1.06866
1.04109
1.06861
1.03511
1.08289
1.03415
1.09427
1.03389
1.08165
1.03074
1.09565
1.01767
1.09513
1.02871
1.12144
0.789713
2.39891
1.01607
0.981902
0.98999
0.949255
1.04499
0.991636
1.04503
1.00504
1.04334
0.997606
1.04239
1.0038
1.04345
1.00414
1.04891
1.00417
1.04468
1.00957
1.04812
1.0132
1.04557
1.01
1.05184
1.02312
1.05956
1.0132
1.06362
1.02268
1.05873
1.02202
1.0593
1.02547
1.05744
1.01833
1.06619
1.02282
1.07425
1.0355
1.072
1.03513
1.07075
1.03291
1.08848
1.03364
1.09514
1.03636
1.08131
1.02664
1.09818
1.00974
1.09414
1.02786
1.11936
0.79193
2.3947
0.98992
1.00587
0.964039
1.00749
0.98322
1.03116
1.00334
1.03595
1.00303
1.03542
1.00443
1.03892
0.999937
1.04498
1.0062
1.04491
1.00853
1.04305
1.01413
1.03943
1.01639
1.04936
1.02064
1.04792
1.02899
1.05251
1.01843
1.06029
1.02419
1.05577
1.0193
1.05754
1.02173
1.06588
1.01814
1.06673
1.02269
1.05787
1.03097
1.07105
1.03784
1.07267
1.03296
1.09219
1.03137
1.09296
1.03253
1.08048
1.02656
1.10085
1.02046
1.09509
1.0279
1.117
0.797497
2.38984
0.992169
0.981134
0.992126
0.953787
1.03547
0.99037
1.04363
1.00686
1.04205
0.998213
1.04279
1.00157
1.04139
1.00174
1.04342
1.00315
1.04594
1.00512
1.04238
1.00691
1.04535
1.0097
1.04533
1.01835
1.04354
1.02334
1.06161
1.01546
1.06132
1.02137
1.05686
1.0225
1.05595
1.02136
1.05735
1.02125
1.06776
1.0225
1.07433
1.02514
1.07477
1.03095
1.07618
1.03295
1.09425
1.02973
1.0949
1.03178
1.08089
1.02451
1.10348
1.00854
1.09494
1.02805
1.11502
0.799139
2.38512
0.975542
1.00632
0.962006
1.00652
0.980912
1.03224
1.00594
1.03045
1.00442
1.03361
1.00228
1.0415
1.00148
1.04218
0.997196
1.04099
1.0061
1.03776
1.00436
1.04365
1.00713
1.04391
1.01596
1.04946
1.02419
1.03983
1.02861
1.05384
1.0176
1.05844
1.02049
1.05871
1.01799
1.05832
1.01922
1.06361
1.02191
1.06754
1.0231
1.05994
1.02985
1.07598
1.03808
1.07735
1.035
1.09385
1.0279
1.09419
1.03005
1.08187
1.02797
1.10066
1.02254
1.09298
1.0265
1.11371
0.805131
2.38075
1.01298
0.979061
0.991069
0.955514
1.03438
0.992009
1.04151
1.00716
1.03943
0.999369
1.04047
1.00572
1.04823
1.00194
1.04335
1.00388
1.04229
1.00135
1.04189
1.0005
1.04322
1.00702
1.04316
1.00601
1.04653
1.02598
1.04943
1.01994
1.06341
1.01854
1.0615
1.0205
1.05699
1.01883
1.05627
1.02254
1.05835
1.02379
1.07047
1.02581
1.0722
1.02165
1.07752
1.0314
1.08283
1.03328
1.09481
1.02687
1.09247
1.03516
1.08333
1.02114
1.09915
1.01812
1.09806
1.02588
1.11648
0.786654
2.37615
0.968719
1.00716
0.967315
1.00361
0.975693
1.02887
1.00403
1.02807
1.0047
1.029
1.00454
1.03533
1.00049
1.04196
0.999506
1.04365
1.00027
1.04103
1.00556
1.03893
1.00336
1.04287
1.00446
1.04131
1.01628
1.04361
1.02333
1.04111
1.02758
1.05373
1.01874
1.06083
1.02321
1.05775
1.01983
1.05781
1.02206
1.06041
1.02543
1.07249
1.02898
1.06135
1.03425
1.07549
1.03141
1.08239
1.03274
1.09547
1.02719
1.09249
1.0365
1.08484
1.03173
1.09679
1.02571
1.09165
1.02138
1.13251
0.79066
2.3719
1.00083
0.9776
0.988958
0.952336
1.03252
0.991887
1.04045
1.00478
1.04353
0.997894
1.03832
1.00403
1.04505
1.00545
1.04442
1.00024
1.04288
1.00045
1.04598
0.997893
1.04677
1.00119
1.04359
1.00423
1.04792
1.01285
1.04171
1.01927
1.04882
1.01724
1.05703
1.02685
1.05783
1.02517
1.05723
1.0265
1.06085
1.03042
1.05419
1.02347
1.07197
1.02642
1.07195
1.02849
1.07997
1.03312
1.08662
1.03151
1.09594
1.03307
1.08959
1.04281
1.08808
1.03476
1.09479
1.02243
1.09395
1.01744
1.12904
0.796485
2.3669
0.980354
1.0046
0.971958
1.00213
0.976571
1.0265
1.00332
1.02708
1.00333
1.02703
1.00167
1.03422
1.00697
1.04342
0.997691
1.04715
1.00585
1.04386
0.998061
1.04782
1.00809
1.03928
1.00552
1.04789
1.002
1.04232
1.01114
1.04887
1.02222
1.04441
1.02593
1.05914
1.02438
1.05548
1.02617
1.05567
1.01838
1.05739
1.02252
1.06143
1.02877
1.0708
1.02976
1.06543
1.02881
1.07768
1.03801
1.08505
1.02918
1.09493
1.04037
1.08614
1.04481
1.08588
1.03583
1.09257
1.02703
1.09406
1.0183
1.12519
0.800129
2.36263
1.00061
0.967015
0.992281
0.949864
1.02972
0.990505
1.03959
1.00338
1.0432
0.997258
1.04027
1.00376
1.04439
1.00389
1.04647
1.00667
1.04954
1.00803
1.04295
0.996844
1.0488
1.00582
1.04589
1.00289
1.04903
1.00813
1.04698
1.00832
1.04691
1.01685
1.04979
1.02074
1.05433
1.03328
1.05305
1.02938
1.05303
1.02265
1.05667
1.02823
1.05668
1.02964
1.07096
1.02966
1.0764
1.02918
1.07774
1.03937
1.08972
1.02905
1.09343
1.04715
1.08241
1.04749
1.08572
1.03448
1.08972
1.01851
1.095
1.0218
1.12248
0.805483
2.35846
0.982782
1.00906
0.969087
1.00219
0.975634
1.02474
1.00531
1.02633
1.00753
1.0228
1.00554
1.03584
0.999077
1.03086
1.00028
1.04608
0.998109
1.04378
1.00525
1.04857
1.00459
1.04645
1.00592
1.04288
1.00966
1.04858
1.0056
1.04169
1.00925
1.05012
1.02018
1.045
1.02441
1.05877
1.03043
1.05446
1.02983
1.05917
1.02386
1.05803
1.02269
1.06304
1.03153
1.07012
1.03227
1.06526
1.03253
1.07639
1.04043
1.08712
1.03571
1.0913
1.05213
1.07912
1.04482
1.08421
1.03518
1.09153
1.02157
1.09105
1.02001
1.125
0.788515
2.35448
1.00118
0.956939
0.991952
0.949402
1.02339
0.988646
1.0398
1.00173
1.04042
1.00303
1.04031
0.997435
1.03917
1.0021
1.04713
0.999334
1.04653
1.00523
1.0479
1.00339
1.04787
1.00305
1.04646
1.01035
1.04476
1.0073
1.04877
1.00786
1.05075
1.00315
1.04903
1.01685
1.05091
1.02168
1.05625
1.0354
1.05223
1.02816
1.05344
1.01892
1.05901
1.02986
1.0576
1.02778
1.0705
1.02828
1.07776
1.03304
1.07468
1.03516
1.09077
1.04219
1.08876
1.05449
1.07681
1.04522
1.08417
1.02854
1.09238
1.01726
1.09611
1.02438
1.13917
0.790785
2.35075
0.982002
1.01424
0.970042
1.00087
0.979648
1.0255
1.0061
1.02649
1.01194
1.02125
1.00071
1.03112
1.01148
1.03764
1.00066
1.03355
0.996361
1.04388
1.01247
1.04297
1.00159
1.04897
1.00866
1.04294
1.0099
1.04158
1.01268
1.04716
1.00585
1.0461
1.00967
1.04951
1.01709
1.04934
1.02665
1.0591
1.02911
1.05584
1.02899
1.05754
1.02031
1.05895
1.02521
1.06253
1.03292
1.07003
1.03282
1.0664
1.03775
1.07441
1.03768
1.0879
1.0474
1.08622
1.05623
1.07508
1.04112
1.08224
1.03029
1.09296
1.02222
1.08978
1.01247
1.1351
0.797363
2.3467
1.00145
0.96015
0.988957
0.951979
1.01621
0.987249
1.03984
1.00147
1.03992
1.00023
1.03696
0.995665
1.02587
1.00172
1.03205
1.00561
1.0502
1.00127
1.04159
1.01465
1.04694
1.00775
1.04678
1.00936
1.04622
1.01035
1.04685
1.00959
1.04625
1.00644
1.05354
1.00495
1.05142
1.01469
1.0543
1.02663
1.05569
1.03392
1.0537
1.02907
1.05511
1.02108
1.0584
1.02767
1.05614
1.02644
1.06677
1.03471
1.0788
1.03924
1.07477
1.03928
1.08945
1.04989
1.08354
1.05532
1.07456
1.03952
1.08623
1.02745
1.09519
1.01781
1.09525
1.01798
1.13089
0.798893
2.34245
0.982528
1.01134
0.972855
0.996153
0.980167
1.02513
1.00441
1.02464
1.01097
1.02056
0.99775
1.02711
1.01747
1.02078
1.01141
1.03001
0.996974
1.03505
1.00728
1.03952
1.0115
1.04264
1.01122
1.04555
1.01564
1.04347
1.00701
1.04289
1.0164
1.04468
1.00844
1.04787
1.01555
1.04883
1.01559
1.05051
1.02767
1.05415
1.03406
1.055
1.02707
1.05832
1.02215
1.05862
1.02472
1.06062
1.03141
1.0635
1.03512
1.06663
1.04087
1.0766
1.04326
1.08619
1.05382
1.08105
1.05437
1.07284
1.0361
1.08756
1.02809
1.09625
1.0221
1.09015
1.0173
1.12642
0.804945
2.33756
1.00207
0.967419
0.986238
0.945095
1.01325
0.985927
1.04026
1.00195
1.03933
0.995629
1.03754
1.00854
1.03279
0.997892
1.02995
1.00475
1.03755
1.00355
1.04596
1.01151
1.03919
1.01842
1.04476
1.01363
1.04449
1.01384
1.04598
1.01042
1.04557
1.01122
1.04338
1.00769
1.05412
1.00822
1.0533
1.01835
1.05342
1.02825
1.05325
1.03577
1.05348
1.0314
1.05755
1.02237
1.05801
1.02605
1.05679
1.0306
1.07036
1.03539
1.07472
1.03898
1.07578
1.0433
1.08642
1.0532
1.07934
1.05183
1.07387
1.03586
1.09241
1.02216
1.09866
1.02005
1.09474
1.01957
1.12198
0.805844
2.33254
0.983283
1.00829
0.975208
0.996958
0.980609
1.02423
1.00417
1.02259
1.00951
1.02154
0.997194
1.02114
0.995867
1.02727
1.00535
1.02327
1.00165
1.03483
1.0028
1.03458
1.01263
1.03763
1.01439
1.04101
1.01027
1.04354
1.01588
1.0429
1.01005
1.04164
1.0174
1.04161
1.01134
1.04906
1.0173
1.04907
1.01401
1.05166
1.03443
1.05264
1.03436
1.05167
1.02549
1.05782
1.02086
1.0594
1.02329
1.06177
1.03375
1.06319
1.03798
1.0664
1.04563
1.07549
1.04779
1.0833
1.05244
1.07845
1.04873
1.07531
1.0315
1.09446
1.02634
1.09935
1.02151
1.09328
1.02237
1.11937
0.814068
2.32777
1.00199
0.973789
0.983772
0.942335
1.01326
0.984593
1.03879
1.00071
1.03928
0.993674
1.0388
1.01541
1.03558
1.00079
1.03929
1.01229
1.03355
1.00605
1.03755
1.01161
1.0418
1.01467
1.03584
1.01858
1.04431
1.01104
1.04255
1.01227
1.04584
1.01248
1.04337
1.01096
1.04031
1.01058
1.05109
1.01272
1.05327
1.01957
1.05423
1.03152
1.05126
1.0365
1.05013
1.02881
1.0571
1.02217
1.05836
1.02547
1.05915
1.03204
1.06913
1.03555
1.06709
1.04668
1.07299
1.04406
1.08243
1.05344
1.08072
1.0458
1.07785
1.03356
1.09698
1.02154
1.10099
1.0218
1.09143
1.02505
1.12181
0.793949
2.3239
0.9831
1.00368
0.980065
0.995523
0.979335
1.02153
1.00363
1.02002
1.0096
1.0226
1.00487
1.02442
0.985417
1.02746
1.00332
1.02733
1.00066
1.02987
1.00708
1.0333
1.01048
1.03302
1.01445
1.03499
1.01313
1.04259
1.01321
1.04242
1.0126
1.04402
1.01599
1.04141
1.02057
1.03949
1.01549
1.04903
1.01747
1.05417
1.02028
1.05208
1.03475
1.04916
1.03317
1.05209
1.0239
1.0594
1.02458
1.0599
1.02499
1.0635
1.034
1.06216
1.04134
1.06631
1.04535
1.07319
1.04708
1.07964
1.05134
1.08362
1.04425
1.0772
1.03198
1.1002
1.02736
1.10004
1.02561
1.0905
1.02202
1.13568
0.799918
2.31938
0.999183
0.98033
0.982172
0.939955
1.01413
0.98518
1.03782
1.00147
1.04003
0.992201
1.03867
1.00488
1.03511
1.01193
1.03443
1.00297
1.03013
1.01842
1.03173
1.00871
1.03366
1.0177
1.04096
1.0138
1.0359
1.01555
1.04349
1.01751
1.04151
1.01263
1.04388
1.01272
1.03947
1.01442
1.03904
1.01002
1.04711
1.01761
1.05301
1.02156
1.05377
1.03385
1.04778
1.03291
1.04841
1.02744
1.05671
1.02776
1.05869
1.02786
1.06058
1.03236
1.06892
1.03941
1.0666
1.04349
1.07435
1.04658
1.07705
1.05007
1.08148
1.0417
1.07872
1.03456
1.10138
1.02447
1.09902
1.01908
1.08982
1.02134
1.13224
0.803394
2.31499
0.978074
1.00364
0.973148
0.993046
0.97672
1.01976
1.00439
1.01884
1.00879
1.02034
1.00863
1.02675
0.998476
1.03176
0.995025
1.02875
1.00675
1.02763
1.0061
1.0292
1.0139
1.03161
1.01358
1.02975
1.00986
1.03612
1.01522
1.04214
1.01549
1.0419
1.01707
1.04226
1.0221
1.03912
1.01829
1.04074
1.01854
1.04617
1.01826
1.05245
1.01855
1.05329
1.03516
1.04761
1.03176
1.05405
1.02472
1.05375
1.02907
1.05976
1.02636
1.06369
1.03441
1.06165
1.03868
1.06451
1.04338
1.0758
1.04466
1.08001
1.04955
1.08262
1.03945
1.08049
1.03357
1.10093
1.0294
1.09792
1.02343
1.08857
1.01919
1.12846
0.809398
2.31099
0.996754
0.984517
0.982312
0.952134
1.01161
0.986424
1.03556
1.00199
1.04055
0.991157
1.03954
1.00184
1.03615
0.993815
1.02601
1.01633
1.02595
1.01859
1.02925
1.01788
1.03103
1.01311
1.02815
1.01953
1.04154
1.01206
1.03461
1.0187
1.04154
1.01654
1.04034
1.01556
1.04074
1.01728
1.04036
1.01318
1.04373
1.01515
1.04585
1.01605
1.05322
1.02009
1.0522
1.03197
1.04693
1.03
1.05479
1.03312
1.05006
1.02751
1.05832
1.02606
1.06091
1.03155
1.06946
1.03734
1.06646
1.04074
1.07851
1.04255
1.07922
1.04821
1.0826
1.03742
1.08243
1.035
1.09846
1.03061
1.09454
1.02596
1.0875
1.02624
1.12456
0.811732
2.30685
0.97849
1.00099
0.963903
0.991243
0.974397
1.01647
1.00375
1.01702
1.00634
1.01966
1.01055
1.02988
0.998774
1.02733
1.01209
1.02537
1.01322
1.02587
1.01037
1.02831
1.00494
1.032
1.01334
1.02612
1.01531
1.03321
1.01826
1.03319
1.01711
1.04098
1.01526
1.04016
1.02055
1.03975
1.01787
1.04218
1.01526
1.04474
1.01589
1.04577
1.01735
1.05492
1.0202
1.04828
1.03112
1.04871
1.02798
1.05926
1.0318
1.05822
1.02993
1.05952
1.02639
1.06266
1.03323
1.06137
1.03626
1.06589
1.04068
1.07913
1.04124
1.07723
1.04686
1.08371
1.03552
1.08337
1.0404
1.09573
1.03583
1.09296
1.02664
1.0847
1.02739
1.12075
0.8185
2.30229
0.995602
0.983642
0.982308
0.9573
1.00578
0.987302
1.03278
1.00161
1.04076
0.994592
1.03702
0.996302
1.02864
1.01895
1.03424
1.02202
1.02943
1.01081
1.02952
1.01424
1.03124
1.01607
1.03188
1.01922
1.0281
1.01144
1.03399
1.0184
1.03343
1.01941
1.03953
1.01854
1.03826
1.01943
1.03932
1.01267
1.04289
1.01394
1.04535
1.01408
1.04642
1.01634
1.05414
1.02198
1.05291
1.02899
1.05125
1.02876
1.05496
1.03123
1.05039
1.02852
1.05805
1.02483
1.06041
1.0301
1.06922
1.03489
1.06863
1.03903
1.08075
1.03997
1.08018
1.04541
1.08241
1.03324
1.08338
1.04342
1.09519
1.03757
1.09081
1.0305
1.08252
1.02847
1.11737
0.819676
2.29779
0.97759
1.0016
0.957662
0.992255
0.963524
1.01506
1.00324
1.0172
1.00593
1.01723
1.01201
1.02851
1.02396
1.02796
1.01231
1.02602
1.00747
1.02805
1.01469
1.02754
1.01145
1.03179
1.00898
1.03226
1.01562
1.02953
1.0198
1.03334
1.01636
1.03199
1.0179
1.0395
1.01722
1.03885
1.01843
1.03864
1.01753
1.04191
1.01621
1.04776
1.01365
1.04748
1.01589
1.05374
1.02091
1.05023
1.02765
1.05402
1.02593
1.05724
1.03074
1.05497
1.02964
1.05868
1.02612
1.06313
1.03138
1.06101
1.03418
1.06733
1.03799
1.08136
1.03928
1.08113
1.04389
1.08239
1.03042
1.08421
1.04218
1.09411
1.04117
1.08974
1.02946
1.08002
1.03096
1.11424
0.825959
2.29352
0.994952
0.982362
0.985117
0.954727
1.00616
0.989585
1.03074
1.00156
1.03967
0.994811
1.03532
1.00197
1.03093
1.0037
1.02496
1.01813
1.02949
1.02091
1.02953
1.01033
1.02721
1.01417
1.02943
1.01613
1.03294
1.01067
1.03169
1.01597
1.03418
1.01975
1.03149
1.02042
1.03844
1.01828
1.0367
1.01885
1.03738
1.01862
1.03969
1.01801
1.04564
1.01202
1.04588
1.01615
1.05357
1.02207
1.05322
1.02652
1.05663
1.02617
1.05509
1.02816
1.05534
1.03165
1.0567
1.02559
1.0632
1.03043
1.06777
1.03315
1.07045
1.03542
1.0822
1.03747
1.08199
1.04233
1.08311
1.02816
1.0853
1.04401
1.09256
1.04236
1.08778
1.03128
1.08037
1.02672
1.11142
0.827197
2.28881
0.979916
0.994884
0.947538
0.991147
0.966565
1.01567
1.00197
1.01768
1.00683
1.01567
1.0153
1.02516
1.01848
1.02634
1.01832
1.02177
1.01225
1.02642
1.01171
1.02532
1.01619
1.02385
1.01427
1.02941
1.00943
1.03331
1.01881
1.03169
1.019
1.03374
1.01922
1.0294
1.02068
1.03785
1.01803
1.03754
1.01947
1.03621
1.02121
1.0389
1.01766
1.04779
1.01277
1.04732
1.01702
1.05489
1.01942
1.05227
1.02562
1.05772
1.02575
1.06021
1.02959
1.05564
1.02982
1.0577
1.02765
1.06459
1.03156
1.0604
1.03204
1.07043
1.03609
1.08177
1.0375
1.08156
1.04105
1.08573
1.02499
1.08407
1.04565
1.08971
1.04576
1.08369
1.02949
1.08124
1.03003
1.10896
0.831838
2.28392
0.995938
0.981901
0.997887
0.962781
1.00249
0.98988
1.02945
1.00149
1.0362
0.99492
1.0357
1.00535
1.03326
1.00826
1.03082
1.00934
1.02482
1.0188
1.02786
1.02014
1.0296
1.01594
1.02817
1.01684
1.02672
1.01374
1.03272
1.01299
1.02953
1.01904
1.03314
1.02145
1.03027
1.02031
1.03704
1.01633
1.03692
1.02106
1.03578
1.02115
1.03768
1.01919
1.04379
1.00969
1.04635
1.01399
1.05445
1.02031
1.0541
1.02535
1.05879
1.02489
1.05559
1.03208
1.0553
1.03202
1.05693
1.02538
1.06581
1.03113
1.06718
1.03105
1.07293
1.03478
1.08229
1.03624
1.08201
1.03872
1.08899
1.0275
1.08563
1.0484
1.0871
1.04552
1.08523
1.02686
1.08361
1.02825
1.1069
0.83583
2.27954
0.978224
0.992569
0.944455
0.987814
0.964743
1.01415
0.999659
1.01851
1.00738
1.01442
1.01584
1.02285
1.01397
1.0214
1.01083
1.02582
1.01495
1.0265
1.01702
1.02395
1.01237
1.02372
1.01714
1.02605
1.01481
1.03034
1.01017
1.03255
1.01766
1.0275
1.02054
1.03235
1.017
1.02909
1.02057
1.03705
1.01658
1.03718
1.01973
1.03462
1.02403
1.03566
1.01807
1.04699
1.01004
1.05046
1.01612
1.0566
1.01999
1.05408
1.0262
1.05869
1.02759
1.05845
1.02866
1.05259
1.03405
1.05731
1.02975
1.06598
1.03442
1.05975
1.02917
1.07394
1.03611
1.07996
1.03581
1.08028
1.03581
1.09391
1.02607
1.08731
1.04877
1.08527
1.04494
1.08474
1.02398
1.08727
1.02755
1.105
0.840541
2.27433
0.996016
0.975014
1.00227
0.960938
1.00298
0.990151
1.02932
1.00109
1.03454
0.995819
1.03394
1.00175
1.03483
1.00254
1.03245
1.00276
1.02452
1.02144
1.02412
1.02379
1.02807
1.02073
1.02651
1.01648
1.02902
1.01673
1.02733
1.01362
1.03144
1.01469
1.03156
1.01991
1.03237
1.02071
1.03072
1.02071
1.03604
1.01957
1.03788
1.01923
1.03281
1.02319
1.03471
1.01634
1.04512
1.00588
1.04813
1.01188
1.05365
1.02043
1.05516
1.02729
1.05881
1.02687
1.05604
1.03352
1.04899
1.03136
1.05638
1.02817
1.06572
1.03168
1.06594
1.03005
1.0765
1.03395
1.08047
1.03511
1.08221
1.03271
1.0966
1.03352
1.08838
1.05076
1.08419
1.042
1.08469
1.02092
1.08909
1.02686
1.10305
0.842109
2.26905
0.975682
0.993086
0.955944
0.987174
0.962198
1.01343
0.996741
1.01873
1.0086
1.01375
1.01614
1.02064
1.00997
1.02445
1.01623
1.02347
1.01503
1.02343
1.02018
1.02382
1.01683
1.02659
1.01441
1.02743
1.0163
1.02696
1.01424
1.03085
1.01006
1.03224
1.01902
1.02614
1.01922
1.0319
1.01801
1.02959
1.01919
1.03516
1.01538
1.03658
1.02207
1.03171
1.024
1.03539
1.0143
1.05031
1.01161
1.05078
1.01431
1.05434
1.01968
1.05492
1.02766
1.05785
1.02613
1.05883
1.03307
1.05891
1.03315
1.05843
1.02997
1.062
1.03186
1.05882
1.03063
1.07712
1.03571
1.08038
1.03731
1.0836
1.0294
1.09411
1.03844
1.0884
1.04683
1.08303
1.04208
1.08566
1.01726
1.09057
1.03037
1.10154
0.848878
2.26436
0.996011
0.963639
1.00013
0.961061
0.986947
0.989857
1.02781
1.0026
1.03355
0.996543
1.03382
0.99895
1.03297
1.00809
1.02563
1.00117
1.0255
1.01627
1.02364
1.02197
1.02257
1.02029
1.02696
1.02077
1.02567
1.01954
1.02635
1.01639
1.03098
1.01146
1.03323
1.01646
1.03081
1.01842
1.03148
1.02088
1.0289
1.02103
1.03399
1.01767
1.03559
1.02154
1.03144
1.02227
1.03426
1.01228
1.04979
1.00673
1.04941
1.01397
1.05374
1.02058
1.05623
1.0288
1.0568
1.02894
1.05718
1.03654
1.04677
1.0316
1.05705
1.02841