/*--------------------------------*- C++ -*----------------------------------*\
| =========                 |                                                 |
| \\      /  F ield         | OpenFOAM: The Open Source CFD Toolbox           |
|  \\    /   O peration     | Version:  2206                                  |
|   \\  /    A nd           | Website:  www.openfoam.com                      |
|    \\/     M anipulation  |                                                 |
\*---------------------------------------------------------------------------*/
FoamFile
{
    version     2.0;
    format      ascii;
    arch        "LSB;label=32;scalar=64";
    class       volScalarField;
    location    "210";
    object      pMean;
}
// * * * * * * * * * * * * * * * * * * * * * * * * * * * * * * * * * * * * * //

dimensions      [1 -1 -2 0 0 0 0];

internalField   nonuniform List<scalar> 
93840
(
2.41336
0.555482
2.3853
1.48098
0.578228
2.23308
0.602964
1.2146
0.657346
1.95413
1.16396
0.950876
1.20086
0.754808
1.79743
0.979929
1.10495
0.951915
1.30086
0.815358
1.70311
1.09561
0.953766
1.1391
0.800734
1.23412
0.835005
1.69365
0.979165
1.1028
0.948289
1.1466
0.860241
1.21185
0.867855
1.68236
1.09555
0.956311
1.13171
0.995291
1.12625
0.891251
1.13362
0.867248
1.69367
0.978379
1.0961
0.955524
1.1056
0.976717
1.09467
0.976355
1.1073
0.863857
1.68152
1.09523
0.967335
1.12384
0.997182
1.10113
0.993088
1.0663
0.998025
1.094
0.868393
1.69903
0.978781
1.09335
0.962754
1.09817
0.982528
1.07882
0.983681
1.06794
0.999188
1.08227
0.867382
1.69054
1.09447
0.968562
1.11705
1.00204
1.09023
1.00085
1.06824
1.00395
1.05657
1.00434
1.0774
0.869101
1.69937
0.979597
1.09254
0.967524
1.09196
0.993281
1.07308
0.989389
1.06648
1.00017
1.05872
0.998466
1.07722
0.868587
1.68982
1.09378
0.970215
1.11124
1.00393
1.08395
1.00633
1.06849
1.00505
1.05954
1.00773
1.05202
1.00323
1.07239
0.870536
1.6994
0.980301
1.09144
0.971932
1.08743
0.997105
1.06981
0.995154
1.06299
0.99966
1.06003
0.999393
1.05487
0.998859
1.07254
0.870223
1.68801
1.09281
0.972248
1.10578
1.00579
1.08019
1.01002
1.06836
1.00775
1.06317
1.00767
1.0563
1.00725
1.05004
1.00285
1.07006
0.872705
1.69732
0.981373
1.0898
0.975874
1.08353
0.999692
1.06729
1.00012
1.06158
1.00009
1.05835
1.00066
1.05595
1.00009
1.0524
0.999064
1.06949
0.872445
1.68541
1.09137
0.974504
1.10067
1.00759
1.07716
1.01246
1.06804
1.01007
1.06431
1.00917
1.06034
1.00875
1.05292
1.00752
1.04878
1.00348
1.06791
0.874899
1.69486
0.982099
1.088
0.979651
1.07995
1.00217
1.06485
1.0043
1.0606
1.00209
1.05835
1.00172
1.05592
1.00167
1.05393
1.00002
1.05008
0.999877
1.06716
0.874796
1.68286
1.09044
0.977066
1.096
1.00934
1.07432
1.01441
1.06724
1.01194
1.0651
1.01015
1.06235
1.01025
1.05841
1.01019
1.05025
1.00772
1.04706
1.00387
1.06608
0.877304
1.69161
0.982756
1.08584
0.982932
1.0766
1.00443
1.06261
1.0078
1.05959
1.00542
1.05848
1.00363
1.0561
1.00304
1.05314
1.00222
1.05296
1.00126
1.04815
1.0008
1.06506
0.877359
1.68053
1.08972
0.9797
1.09178
1.01085
1.07197
1.01587
1.06617
1.01369
1.06497
1.01115
1.06351
1.01149
1.06067
1.01058
1.05676
1.00988
1.04839
1.00776
1.04641
1.00455
1.06444
0.88015
1.68757
0.983892
1.08366
0.985793
1.07349
1.0064
1.06059
1.01075
1.05836
1.00888
1.05811
1.00619
1.05473
1.00619
1.05379
1.00457
1.05196
1.00435
1.05134
1.00202
1.04648
1.00161
1.06327
0.880138
1.67833
1.08876
0.982034
1.08795
1.01251
1.06983
1.01702
1.06496
1.01542
1.06364
1.01313
1.06124
1.01443
1.06097
1.01196
1.0589
1.01049
1.05439
1.01035
1.0474
1.00822
1.04505
1.00516
1.06319
0.881601
1.6752
0.98521
1.08126
0.988827
1.07041
1.00832
1.05876
1.01328
1.05693
1.01161
1.05646
1.01053
1.05468
1.00927
1.0541
1.00728
1.05263
1.006
1.05089
1.0059
1.04939
1.00311
1.04541
1.00185
1.06167
0.879998
1.66919
1.08767
0.984798
1.08431
1.01408
1.0678
1.01804
1.06373
1.01724
1.06276
1.01527
1.0613
1.01627
1.06026
1.01418
1.05813
1.01375
1.05746
1.01194
1.05228
1.01044
1.04699
1.00825
1.04439
1.00505
1.06155
0.888807
1.67317
0.986816
1.07862
0.991585
1.06742
1.01024
1.05699
1.01549
1.05547
1.01416
1.05569
1.01267
1.05497
1.01188
1.05411
1.00987
1.05285
1.00836
1.05166
1.00703
1.05004
1.00694
1.04782
1.00366
1.0449
1.00195
1.05859
0.88855
1.67041
1.08637
0.987754
1.08088
1.01543
1.06614
1.01894
1.06251
1.01875
1.06151
1.01701
1.06059
1.01733
1.06035
1.01599
1.05811
1.0163
1.05738
1.01385
1.05655
1.01235
1.05105
1.01084
1.04694
1.0071
1.04405
1.00457
1.05954
0.889233
1.67234
0.988363
1.07599
0.993819
1.06484
1.01192
1.05535
1.0174
1.05403
1.01631
1.05445
1.015
1.05409
1.01397
1.05395
1.01241
1.05296
1.01075
1.05225
1.0091
1.05091
1.00802
1.04903
1.00735
1.04795
1.00363
1.04485
1.00218
1.05931
0.889921
1.66779
1.08497
0.990063
1.07788
1.01695
1.0646
1.01969
1.06128
1.02008
1.06026
1.01877
1.06066
1.01848
1.05924
1.0172
1.05925
1.01675
1.05755
1.016
1.05631
1.01314
1.05493
1.01252
1.05001
1.01019
1.0466
1.00636
1.04369
1.00389
1.05988
0.889956
1.66878
0.989909
1.0736
0.996087
1.0626
1.01334
1.05369
1.01892
1.05266
1.01802
1.05354
1.01688
1.05369
1.01584
1.05374
1.01493
1.05294
1.01332
1.05245
1.01157
1.05139
1.01039
1.04995
1.00924
1.04884
1.00698
1.04706
1.00412
1.04451
1.00173
1.06014
0.892118
1.66373
1.08334
0.992645
1.07473
1.01787
1.06335
1.02045
1.06011
1.02124
1.05921
1.0203
1.05967
1.01867
1.05934
1.0188
1.05816
1.01739
1.05784
1.01741
1.05619
1.01641
1.05524
1.01442
1.05348
1.01249
1.04953
1.01063
1.04619
1.00581
1.04335
1.00226
1.06024
0.893508
1.66408
0.991656
1.07057
0.998416
1.0606
1.0146
1.05224
1.02019
1.05145
1.01939
1.05254
1.01821
1.053
1.01766
1.05299
1.01681
1.05287
1.01657
1.05222
1.01406
1.05177
1.01265
1.05039
1.01127
1.04897
1.00982
1.04836
1.00729
1.047
1.00435
1.04487
1.00058
1.05959
0.895933
1.65996
1.08148
0.995535
1.07187
1.01879
1.06226
1.02108
1.05899
1.02229
1.05827
1.02129
1.0586
1.02055
1.05843
1.01972
1.05735
1.01929
1.05707
1.01826
1.05615
1.01843
1.05493
1.01707
1.05391
1.01502
1.05222
1.01303
1.04891
1.01034
1.04585
1.00567
1.04369
1.00107
1.06241
0.882942
1.66037
0.993561
1.06765
1.00069
1.0588
1.01573
1.05086
1.02125
1.0503
1.0206
1.05181
1.01972
1.05217
1.01938
1.0521
1.01963
1.05242
1.01844
1.05164
1.01743
1.05147
1.01516
1.05138
1.01332
1.05007
1.01237
1.04813
1.0102
1.04772
1.00759
1.04642
1.00427
1.04557
0.998825
1.07548
0.885217
1.65571
1.07954
0.998091
1.06896
1.01958
1.06124
1.02157
1.05805
1.0232
1.05735
1.02206
1.05751
1.02183
1.05736
1.02121
1.05706
1.02021
1.05687
1.01987
1.05634
1.01915
1.0549
1.01824
1.05374
1.01699
1.05266
1.0156
1.05131
1.01294
1.04857
1.01042
1.04565
1.00554
1.04421
0.99451
1.07289
0.890084
1.65585
0.995349
1.06518
1.00286
1.05713
1.01669
1.04963
1.02204
1.04922
1.02192
1.05139
1.02104
1.0508
1.02094
1.05178
1.02046
1.05095
1.02094
1.05138
1.01954
1.05098
1.01819
1.05132
1.0161
1.05096
1.01462
1.04938
1.01352
1.04793
1.01116
1.04725
1.0081
1.04612
1.00415
1.04531
0.99621
1.06927
0.891573
1.65154
1.07737
0.999971
1.06649
1.02036
1.06035
1.02199
1.05721
1.02391
1.05626
1.02287
1.05511
1.02369
1.05633
1.02221
1.05579
1.02253
1.05592
1.02082
1.05598
1.01979
1.05593
1.01948
1.0547
1.01849
1.05312
1.01746
1.05168
1.01564
1.05034
1.01316
1.04787
1.01019
1.04559
1.00495
1.0448
0.997261
1.06766
0.896056
1.65212
0.997368
1.06284
1.00476
1.05553
1.01759
1.0485
1.02266
1.04814
1.02279
1.05008
1.02335
1.04997
1.02251
1.05076
1.02209
1.05094
1.02156
1.05079
1.02221
1.05121
1.01973
1.0503
1.01881
1.05059
1.01705
1.05034
1.01567
1.04901
1.01407
1.04761
1.01162
1.04733
1.00807
1.04631
1.00392
1.04564
0.998414
1.0688
0.881985
1.64791
1.07503
1.00205
1.06424
1.02103
1.0595
1.02236
1.05645
1.02453
1.05553
1.02454
1.05484
1.02418
1.05526
1.02329
1.05484
1.02308
1.05512
1.02327
1.05463
1.02104
1.05477
1.02098
1.05463
1.02006
1.05365
1.0191
1.05218
1.01778
1.05111
1.01585
1.05
1.01298
1.04756
1.00974
1.04582
1.00454
1.04567
0.997607
1.08074
0.886523
1.64817
0.999569
1.06051
1.00663
1.05405
1.01837
1.04744
1.0232
1.04705
1.02365
1.04868
1.02326
1.04934
1.02449
1.04968
1.02349
1.05007
1.02336
1.05055
1.02222
1.05037
1.02329
1.05068
1.0206
1.05006
1.01946
1.05027
1.01792
1.04962
1.01623
1.04864
1.01441
1.04755
1.01178
1.04726
1.00806
1.04634
1.00351
1.04562
0.992229
1.07706
0.889526
1.64373
1.07259
1.00413
1.06185
1.02144
1.05869
1.02269
1.05568
1.02504
1.05479
1.02577
1.05454
1.02536
1.05399
1.02313
1.0539
1.02417
1.0541
1.02335
1.05269
1.02449
1.0535
1.02167
1.05252
1.02224
1.05365
1.02046
1.05231
1.01981
1.05173
1.01804
1.05029
1.01595
1.04915
1.01318
1.04728
1.00939
1.04606
1.0043
1.04598
0.9952
1.07406
0.893944
1.64434
1.00176
1.05832
1.00895
1.05267
1.01908
1.0465
1.02368
1.046
1.02466
1.04758
1.02408
1.04871
1.02401
1.04904
1.02544
1.04908
1.02473
1.04981
1.02451
1.05005
1.02366
1.04973
1.02433
1.04992
1.02116
1.04971
1.02026
1.04962
1.0185
1.04921
1.01665
1.04823
1.01488
1.0471
1.01182
1.04703
1.00803
1.04633
1.00341
1.04575
0.996459
1.06999
0.89593
1.64018
1.07041
1.00598
1.06009
1.02175
1.05795
1.02305
1.05492
1.02549
1.0545
1.026
1.05355
1.02579
1.05353
1.02543
1.05332
1.02438
1.05093
1.02524
1.05086
1.0261
1.05166
1.0245
1.05262
1.02274
1.05205
1.02247
1.05249
1.02098
1.0519
1.01986
1.05099
1.01836
1.04974
1.01639
1.04862
1.0132
1.0472
1.00905
1.04622
1.00382
1.04652
0.997944
1.06802
0.899282
1.64128
1.0035
1.05646
1.01022
1.05146
1.01968
1.04555
1.02412
1.04516
1.02528
1.04649
1.02524
1.04773
1.02503
1.04887
1.02483
1.0485
1.02659
1.04886
1.02641
1.04902
1.02529
1.04953
1.02456
1.04944
1.02468
1.04955
1.02176
1.04958
1.02079
1.04939
1.01917
1.04871
1.01738
1.04771
1.01515
1.04693
1.01184
1.04697
1.0079
1.04638
1.00308
1.04622
0.998285
1.06932
0.88751
1.63687
1.06806
1.0075
1.05871
1.02197
1.05732
1.02347
1.05415
1.02586
1.05412
1.02606
1.05301
1.02655
1.05209
1.02557
1.0512
1.02685
1.05129
1.02674
1.05046
1.02715
1.05078
1.02632
1.05134
1.02484
1.0518
1.02349
1.05105
1.02333
1.05197
1.02095
1.05135
1.02003
1.05035
1.01856
1.04919
1.01639
1.04812
1.01302
1.04715
1.0088
1.04661
1.0036
1.04707
0.998537
1.07942
0.89048
1.63738
1.00575
1.05467
1.0115
1.05027
1.02014
1.04466
1.02455
1.04439
1.02606
1.04547
1.02676
1.04661
1.02617
1.04729
1.0267
1.04785
1.02607
1.04832
1.02699
1.04857
1.02672
1.04874
1.02591
1.04923
1.0252
1.04902
1.0249
1.04862
1.02244
1.04912
1.02095
1.04911
1.01976
1.04846
1.01767
1.04755
1.01534
1.04651
1.01198
1.0469
1.00767
1.04657
1.00268
1.04634
0.99273
1.07614
0.894152
1.63275
1.06596
1.00905
1.05717
1.02214
1.05673
1.02385
1.05341
1.02616
1.05336
1.02624
1.05231
1.02604
1.05137
1.02658
1.05071
1.02716
1.0505
1.02765
1.05136
1.02731
1.04998
1.02712
1.05007
1.02661
1.0504
1.02539
1.05127
1.02417
1.05044
1.02376
1.05142
1.02172
1.05053
1.02043
1.04997
1.01871
1.0489
1.01651
1.04808
1.01285
1.04714
1.00849
1.04653
1.00346
1.04717
0.996345
1.07314
0.896164
1.63354
1.00748
1.05311
1.01291
1.04915
1.02058
1.04388
1.02499
1.04371
1.02673
1.04485
1.02757
1.04573
1.02727
1.04672
1.02731
1.04707
1.02753
1.04723
1.02688
1.04781
1.0275
1.04866
1.02705
1.04832
1.02624
1.0488
1.02557
1.04876
1.02521
1.04828
1.02293
1.04856
1.02171
1.04847
1.02013
1.04808
1.01782
1.04729
1.01553
1.04635
1.01199
1.04681
1.00766
1.04633
1.00328
1.04651
0.996138
1.07047
0.899357
1.62927
1.06407
1.01057
1.05587
1.02227
1.05617
1.02417
1.05271
1.02639
1.05257
1.02662
1.05202
1.02583
1.05108
1.02714
1.05006
1.02707
1.04989
1.02789
1.04962
1.02818
1.0504
1.0278
1.04937
1.02786
1.04978
1.02681
1.05025
1.02566
1.0507
1.0247
1.05006
1.02406
1.05034
1.0224
1.05009
1.02064
1.04943
1.01886
1.04847
1.01635
1.04787
1.01288
1.04698
1.00849
1.04627
1.0035
1.04728
0.998557
1.07197
0.888962
1.63016
1.00921
1.05152
1.01391
1.04815
1.02094
1.04315
1.02537
1.04312
1.0273
1.04418
1.02776
1.04517
1.02875
1.04566
1.02777
1.0465
1.0278
1.04686
1.02818
1.04722
1.02762
1.0474
1.02798
1.04803
1.0271
1.04816
1.02686
1.04844
1.02599
1.04826
1.02536
1.04795
1.0235
1.04813
1.02201
1.04798
1.02051
1.04764
1.01809
1.04696
1.01563
1.04599
1.01209
1.04657
1.00791
1.04619
1.00335
1.04675
0.997384
1.07953
0.892504
1.62577
1.0623
1.01204
1.05493
1.02231
1.05562
1.02443
1.05208
1.02653
1.05183
1.02685
1.05134
1.02698
1.04995
1.0264
1.04857
1.02815
1.04937
1.02817
1.04873
1.02818
1.04925
1.02883
1.04964
1.02808
1.04935
1.028
1.04928
1.02696
1.04977
1.02592
1.04985
1.02525
1.04981
1.02429
1.04983
1.0228
1.04961
1.0207
1.04909
1.01888
1.04823
1.01642
1.0473
1.01293
1.04668
1.00881
1.04614
1.00339
1.04723
0.994478
1.0769
0.895459
1.62666
1.01066
1.05042
1.01476
1.0472
1.02124
1.04249
1.02574
1.04261
1.02787
1.04371
1.02836
1.04453
1.0285
1.04476
1.03015
1.04547
1.02882
1.0464
1.02853
1.04643
1.02898
1.04673
1.02834
1.04711
1.02843
1.04774
1.02773
1.04769
1.02732
1.04811
1.02634
1.04812
1.02547
1.04774
1.02386
1.0479
1.02231
1.04772
1.02069
1.04746
1.01823
1.04672
1.01591
1.04605
1.01212
1.04593
1.00843
1.04629
1.00344
1.04686
0.995641
1.07397
0.898352
1.62209
1.0606
1.01295
1.0539
1.02202
1.05506
1.02465
1.05145
1.02666
1.05115
1.02709
1.05076
1.0273
1.04882
1.02816
1.04873
1.02799
1.04839
1.02831
1.04828
1.02905
1.04839
1.02889
1.04847
1.02918
1.04877
1.02856
1.04894
1.02827
1.04915
1.02716
1.04929
1.02648
1.04932
1.02541
1.04949
1.0244
1.04922
1.02292
1.04928
1.02075
1.04869
1.01903
1.04782
1.01638
1.04709
1.01319
1.04606
1.00874
1.0462
1.00338
1.0472
0.998316
1.07176
0.900013
1.62288
1.01211
1.04968
1.01548
1.04685
1.02152
1.0419
1.0261
1.04212
1.0284
1.04337
1.02896
1.04344
1.02951
1.04473
1.02982
1.04481
1.03016
1.04547
1.02983
1.04573
1.02899
1.04587
1.02972
1.04659
1.02891
1.04692
1.02846
1.04741
1.02808
1.04741
1.02763
1.04768
1.02654
1.04791
1.0255
1.04753
1.02418
1.04755
1.02238
1.0474
1.0209
1.04714
1.01846
1.04647
1.01601
1.04581
1.01247
1.04603
1.00844
1.04628
1.00342
1.04695
0.998458
1.06934
0.902875
1.61809
1.05903
1.01383
1.05297
1.022
1.05444
1.02489
1.05082
1.02675
1.0506
1.02722
1.04988
1.02735
1.04874
1.02806
1.0473
1.02885
1.04736
1.02897
1.04753
1.02879
1.04749
1.02997
1.04782
1.02921
1.04744
1.02969
1.04841
1.02912
1.04848
1.02847
1.0488
1.02732
1.04891
1.02672
1.04893
1.0256
1.04914
1.0245
1.04901
1.02304
1.04893
1.02086
1.04829
1.01912
1.04754
1.01641
1.04677
1.01306
1.04604
1.00869
1.04608
1.00338
1.04721
0.999929
1.0671
0.904435
1.61882
1.01335
1.04891
1.01634
1.0459
1.02184
1.04131
1.0264
1.04169
1.02886
1.04305
1.02959
1.04386
1.03011
1.04388
1.03032
1.04454
1.03065
1.04466
1.03018
1.04528
1.03037
1.04514
1.02985
1.04579
1.03025
1.0464
1.02944
1.04683
1.02886
1.04732
1.02814
1.04732
1.0278
1.0475
1.02676
1.04765
1.02566
1.04719
1.02443
1.04726
1.0227
1.04704
1.02107
1.04685
1.01867
1.04618
1.01626
1.04571
1.01262
1.0459
1.00841
1.04605
1.00347
1.047
0.999667
1.06545
0.907166
1.61457
1.05732
1.01461
1.052
1.02206
1.05382
1.02514
1.05023
1.02685
1.05009
1.0274
1.04967
1.02756
1.04812
1.02836
1.04713
1.02927
1.04669
1.02949
1.04675
1.02975
1.047
1.02981
1.04708
1.02987
1.04706
1.02993
1.04705
1.02984
1.04805
1.02942
1.04815
1.02873
1.04856
1.02767
1.04861
1.02687
1.04854
1.02568
1.04874
1.02456
1.04872
1.0231
1.04863
1.02108
1.04801
1.0192
1.04708
1.01646
1.04648
1.01286
1.04597
1.00882
1.04611
1.00345
1.04736
1.00056
1.06652
0.8991
1.61541
1.01493
1.04819
1.01694
1.04497
1.02216
1.04072
1.02667
1.04124
1.02921
1.04277
1.03018
1.04313
1.03073
1.0435
1.03112
1.04406
1.0311
1.04454
1.03103
1.04484
1.03074
1.04524
1.03079
1.04529
1.03035
1.04576
1.03042
1.0465
1.02974
1.04674
1.02905
1.0471
1.02837
1.04704
1.02794
1.0473
1.02692
1.04739
1.02594
1.04712
1.02459
1.04711
1.02274
1.04681
1.02111
1.0465
1.01889
1.04593
1.01638
1.0455
1.01284
1.04575
1.00841
1.04595
1.00348
1.04723
0.999929
1.07373
0.90131
1.61091
1.05596
1.01538
1.0513
1.02212
1.05318
1.02538
1.04967
1.02699
1.04963
1.02782
1.04899
1.02766
1.04786
1.02884
1.04697
1.02919
1.04588
1.02977
1.04585
1.03012
1.04635
1.03022
1.04623
1.03039
1.04653
1.03059
1.04678
1.03031
1.04677
1.02997
1.04739
1.0297
1.04789
1.02893
1.0483
1.02786
1.0483
1.02694
1.0481
1.02586
1.04838
1.02461
1.04837
1.02324
1.0482
1.02124
1.04773
1.01926
1.04682
1.01653
1.04623
1.01284
1.04592
1.00886
1.04608
1.00349
1.04721
0.996997
1.07199
0.903706
1.61163
1.01605
1.04751
1.0177
1.04405
1.02249
1.04016
1.02691
1.04078
1.02957
1.04234
1.03071
1.04295
1.0317
1.04291
1.03143
1.04357
1.03147
1.04404
1.03185
1.04442
1.03144
1.04454
1.03124
1.04495
1.03102
1.04521
1.03058
1.04557
1.0305
1.04628
1.03002
1.04676
1.02923
1.04673
1.02855
1.04696
1.02803
1.04711
1.02717
1.04709
1.02601
1.04686
1.02466
1.04681
1.02282
1.04661
1.02115
1.04624
1.019
1.04558
1.01649
1.04532
1.01286
1.04567
1.00834
1.04592
1.00355
1.04704
0.998182
1.06963
0.905553
1.60726
1.05484
1.01614
1.05024
1.0222
1.05249
1.02563
1.04914
1.02711
1.04915
1.02845
1.04836
1.02867
1.04728
1.02919
1.04625
1.02993
1.04532
1.03031
1.04541
1.03045
1.04548
1.03058
1.04558
1.03078
1.04563
1.03092
1.04628
1.03084
1.04668
1.03051
1.04681
1.03026
1.04696
1.03002
1.04769
1.02904
1.04803
1.02799
1.04794
1.02706
1.04779
1.026
1.04815
1.02468
1.04802
1.0234
1.04787
1.02128
1.04742
1.01926
1.04647
1.01656
1.04595
1.01283
1.04582
1.00883
1.04605
1.00382
1.04696
0.998857
1.06778
0.90838
1.60786
1.01696
1.04687
1.0185
1.04316
1.02285
1.03963
1.02712
1.04034
1.02991
1.04177
1.03107
1.04236
1.03202
1.04218
1.03207
1.04302
1.03206
1.04367
1.03194
1.04378
1.03216
1.04412
1.03196
1.04425
1.03178
1.04493
1.03118
1.04518
1.03087
1.04542
1.0308
1.046
1.03016
1.04661
1.02944
1.0466
1.0287
1.04682
1.02808
1.04685
1.02735
1.04683
1.02601
1.04666
1.02467
1.04666
1.02294
1.04637
1.02114
1.04594
1.01909
1.04521
1.01659
1.04516
1.01286
1.04546
1.0084
1.04586
1.00375
1.04683
0.999701
1.06833
0.900277
1.60367
1.05382
1.01706
1.04919
1.0223
1.05174
1.02585
1.04864
1.02722
1.0487
1.02904
1.04803
1.02964
1.04719
1.02927
1.04608
1.03063
1.04562
1.03081
1.0453
1.03082
1.04517
1.03095
1.04502
1.03101
1.04513
1.03121
1.04521
1.03135
1.04599
1.03111
1.0464
1.03072
1.04665
1.03058
1.04676
1.03006
1.04757
1.02912
1.04769
1.02826
1.04776
1.02717
1.04754
1.02624
1.04783
1.02483
1.04769
1.02336
1.04766
1.02139
1.04719
1.01943
1.04631
1.01653
1.04569
1.01291
1.04564
1.00885
1.04592
1.00409
1.04695
0.999998
1.07534
0.902371
1.60439
1.0178
1.04607
1.01937
1.0423
1.0233
1.03913
1.0273
1.03989
1.03022
1.04126
1.03139
1.04224
1.03183
1.04216
1.03288
1.0423
1.03247
1.04254
1.03282
1.04349
1.03248
1.0435
1.03234
1.04384
1.03236
1.0441
1.03205
1.04477
1.03142
1.04505
1.03115
1.04535
1.03103
1.04593
1.03028
1.0465
1.02954
1.0464
1.02881
1.04665
1.02819
1.04666
1.02738
1.04656
1.02613
1.04655
1.0247
1.04648
1.02291
1.04607
1.02116
1.04568
1.01919
1.04493
1.01666
1.04488
1.01294
1.04527
1.0084
1.04566
1.00406
1.04665
0.996407
1.0731
0.905181
1.60028
1.05287
1.01789
1.04827
1.02242
1.05107
1.02604
1.04815
1.02734
1.04829
1.02947
1.04763
1.03037
1.04682
1.03027
1.04611
1.03067
1.04506
1.03166
1.04456
1.03151
1.04437
1.03156
1.0448
1.03168
1.04462
1.03171
1.04485
1.03173
1.04497
1.03147
1.04569
1.03133
1.04608
1.031
1.04646
1.03072
1.04663
1.03014
1.04729
1.02922
1.0475
1.02834
1.04746
1.02733
1.04728
1.02627
1.04753
1.02487
1.04737
1.02357
1.04727
1.02154
1.04684
1.01944
1.046
1.01658
1.04541
1.01302
1.04547
1.00893
1.04567
1.00437
1.04667
0.998513
1.07106
0.906877
1.60085
1.01859
1.04534
1.02004
1.04146
1.02365
1.03863
1.02748
1.03945
1.03049
1.04083
1.03192
1.04202
1.03205
1.04168
1.03301
1.04211
1.03336
1.04232
1.03315
1.0424
1.03311
1.04295
1.03282
1.04341
1.03274
1.04365
1.03252
1.04396
1.03223
1.04468
1.03173
1.0449
1.03137
1.04525
1.03115
1.04569
1.03047
1.04635
1.02968
1.04633
1.02893
1.04654
1.0283
1.04644
1.02754
1.04637
1.02618
1.0463
1.0246
1.0463
1.02297
1.04571
1.02125
1.0454
1.0193
1.04464
1.01677
1.04463
1.01294
1.04512
1.00857
1.04534
1.00447
1.04636
0.999029
1.06856
0.909785
1.59654
1.05182
1.01867
1.04731
1.02256
1.05038
1.02618
1.04767
1.02744
1.04792
1.02975
1.0474
1.03086
1.04656
1.03077
1.04587
1.03109
1.04476
1.03158
1.04441
1.03204
1.04405
1.0322
1.04424
1.03196
1.04443
1.03202
1.04428
1.03214
1.04448
1.032
1.04484
1.03168
1.04551
1.03149
1.04587
1.03121
1.04616
1.03081
1.04648
1.0302
1.04705
1.02939
1.04727
1.02846
1.04719
1.0274
1.04708
1.02633
1.04729
1.02498
1.04702
1.02363
1.04706
1.02159
1.04648
1.01948
1.04564
1.01662
1.04504
1.01315
1.04532
1.009
1.0452
1.00475
1.04626
1.00062
1.06607
0.911193
1.59674
1.01948
1.04467
1.02082
1.04073
1.02408
1.03814
1.0277
1.03903
1.03071
1.04043
1.03246
1.04227
1.03209
1.04231
1.03316
1.04218
1.0334
1.04215
1.03351
1.04187
1.03376
1.04258
1.03326
1.04273
1.03305
1.04337
1.03294
1.04368
1.03281
1.04404
1.03238
1.04466
1.03191
1.04486
1.03158
1.04518
1.03131
1.04568
1.03062
1.04614
1.02985
1.04612
1.02906
1.04632
1.02843
1.04624
1.02759
1.04619
1.02624
1.04613
1.02472
1.04607
1.02307
1.04552
1.02136
1.045
1.01946
1.04434
1.01691
1.04437
1.01296
1.04485
1.0088
1.04497
1.00486
1.04609
1.00067
1.06433
0.91404
1.59265
1.05094
1.01934
1.04647
1.02266
1.04965
1.02633
1.04718
1.02751
1.04756
1.03002
1.04741
1.03101
1.04605
1.03162
1.04492
1.03157
1.04453
1.03211
1.0435
1.03294
1.04378
1.03271
1.04345
1.03282
1.04395
1.03235
1.04411
1.03227
1.0441
1.03237
1.0443
1.03212
1.04477
1.03184
1.04531
1.03171
1.04571
1.03128
1.04612
1.03089
1.04626
1.03031
1.04678
1.02948
1.04703
1.02852
1.047
1.02748
1.04683
1.02633
1.047
1.02501
1.04677
1.02362
1.04668
1.02169
1.04617
1.01954
1.04531
1.01665
1.04478
1.01325
1.04509
1.00896
1.04476
1.00493
1.04585
1.00168
1.06532
0.906404
1.59301
1.02015
1.04398
1.02143
1.04009
1.02448
1.03763
1.02793
1.03865
1.03092
1.04004
1.03294
1.04196
1.03284
1.0429
1.03295
1.04166
1.03394
1.04195
1.03397
1.04181
1.03363
1.04185
1.034
1.04253
1.03354
1.04271
1.03328
1.04305
1.03309
1.04359
1.03293
1.044
1.0326
1.04457
1.03207
1.0448
1.03175
1.04505
1.03151
1.04556
1.03077
1.04612
1.02999
1.0461
1.0292
1.04622
1.02855
1.04607
1.02764
1.04605
1.02629
1.04596
1.02477
1.04591
1.02315
1.04528
1.02149
1.04475
1.01951
1.04411
1.01702
1.04413
1.0131
1.0446
1.00932
1.04485
1.00519
1.04587
1.00118
1.07199
0.908816
1.58898
1.0501
1.02005
1.04574
1.02273
1.04892
1.02649
1.04669
1.02754
1.04717
1.03026
1.04739
1.031
1.04591
1.03123
1.0435
1.03261
1.04436
1.03264
1.04301
1.03352
1.04307
1.03372
1.0435
1.0333
1.04319
1.0331
1.04357
1.03262
1.04408
1.03266
1.04402
1.03255
1.04411
1.03221
1.04469
1.03199
1.04503
1.03178
1.0456
1.03136
1.04603
1.03096
1.04618
1.03034
1.04667
1.02953
1.04679
1.0286
1.04676
1.0275
1.04667
1.02636
1.04672
1.02506
1.04653
1.0236
1.04644
1.02168
1.04589
1.01958
1.04498
1.01667
1.04458
1.01334
1.04481
1.00891
1.04456
1.00515
1.04555
0.998239
1.07
0.911377
1.58881
1.02082
1.0434
1.02195
1.03948
1.02487
1.03716
1.02817
1.03829
1.03113
1.03976
1.0333
1.04157
1.03377
1.04173
1.03412
1.04177
1.03385
1.0419
1.03453
1.04154
1.03435
1.04186
1.03403
1.04179
1.03402
1.04229
1.03384
1.04272
1.03338
1.04305
1.0332
1.04339
1.03305
1.04395
1.03276
1.04438
1.03226
1.04454
1.03197
1.04498
1.03163
1.04543
1.03089
1.04601
1.03003
1.04602
1.02931
1.04597
1.02867
1.04586
1.0277
1.04587
1.02632
1.0457
1.02482
1.04561
1.023
1.04517
1.02154
1.04448
1.0196
1.0438
1.01707
1.04381
1.01329
1.04437
1.00937
1.04466
1.00546
1.04574
0.999556
1.06728
0.913571
1.58523
1.04926
1.0206
1.04511
1.02279
1.04816
1.0266
1.04621
1.02755
1.04679
1.03044
1.04737
1.03135
1.04584
1.03208
1.04443
1.03295
1.0439
1.0335
1.04337
1.03377
1.04311
1.0338
1.04281
1.0339
1.04293
1.03373
1.04273
1.03343
1.04314
1.03296
1.04388
1.03294
1.04389
1.03281
1.04385
1.0324
1.04456
1.03214
1.04515
1.03189
1.04546
1.03148
1.04587
1.03099
1.04612
1.03045
1.04644
1.02963
1.04645
1.02864
1.04662
1.02755
1.04649
1.02637
1.04648
1.02515
1.04637
1.02382
1.04618
1.02171
1.04553
1.01959
1.04465
1.01684
1.04424
1.01347
1.04451
1.00909
1.0443
1.00532
1.04534
1.00042
1.0655
0.915559
1.58386
1.02161
1.04291
1.0225
1.03889
1.0253
1.03672
1.0284
1.03797
1.03134
1.0395
1.03362
1.04128
1.03436
1.04208
1.03421
1.04175
1.03441
1.04172
1.03434
1.04173
1.03468
1.04164
1.03468
1.04175
1.03439
1.04209
1.03434
1.04239
1.03399
1.04252
1.03362
1.04298
1.03335
1.04325
1.03321
1.04403
1.03288
1.04429
1.03245
1.04448
1.03211
1.04496
1.03169
1.04539
1.03096
1.04584
1.03018
1.04594
1.02942
1.04594
1.02871
1.04572
1.02772
1.04569
1.02638
1.0455
1.02484
1.04549
1.02306
1.04496
1.02149
1.04428
1.01963
1.04347
1.01722
1.04346
1.01348
1.04407
1.00947
1.04433
1.00547
1.04543
1.00144
1.06584
0.908904
1.58032
1.04849
1.02111
1.04442
1.02285
1.04734
1.02668
1.04576
1.02754
1.0464
1.03062
1.04717
1.03169
1.04575
1.03151
1.04322
1.03356
1.04345
1.03391
1.04352
1.03404
1.04274
1.03405
1.04269
1.0342
1.04266
1.03421
1.04243
1.03394
1.0426
1.03373
1.04293
1.03326
1.04361
1.0331
1.04383
1.03293
1.04378
1.03252
1.04449
1.03226
1.04497
1.03198
1.04535
1.03157
1.04578
1.03106
1.04597
1.03051
1.0463
1.02967
1.04635
1.02866
1.04642
1.0276
1.04623
1.02644
1.04625
1.02514
1.04614
1.02385
1.04589
1.02191
1.04527
1.01971
1.04427
1.01692
1.04389
1.01365
1.04424
1.00923
1.04407
1.00542
1.0452
1.00139
1.07151
0.912514
1.58003
1.02215
1.04231
1.02309
1.03828
1.02582
1.0363
1.0286
1.03768
1.03153
1.03928
1.03394
1.04096
1.03453
1.04102
1.03531
1.04161
1.03484
1.04163
1.03447
1.04155
1.03474
1.04163
1.03485
1.04146
1.03489
1.04163
1.03455
1.04212
1.03444
1.04231
1.03416
1.04245
1.03381
1.04297
1.03347
1.04316
1.03329
1.04388
1.03305
1.0442
1.03257
1.04449
1.03219
1.04494
1.03172
1.04533
1.03107
1.04572
1.03027
1.04584
1.02949
1.04577
1.02874
1.04554
1.02779
1.04554
1.02641
1.04531
1.02493
1.04526
1.02311
1.04472
1.02155
1.04403
1.01976
1.0432
1.01741
1.04312
1.01364
1.04376
1.00962
1.04419
1.00557
1.04527
0.998566
1.06902
0.91535
1.57681
1.04782
1.02174
1.04379
1.02291
1.04664
1.0267
1.04533
1.02751
1.04602
1.03078
1.04694
1.03219
1.04584
1.03216
1.04377
1.03349
1.04328
1.03395
1.04247
1.03443
1.04305
1.03455
1.04269
1.03448
1.04269
1.03444
1.04248
1.03447
1.04236
1.03415
1.04248
1.034
1.0429
1.03344
1.04347
1.03322
1.04373
1.03308
1.04378
1.03264
1.04442
1.03238
1.04487
1.03208
1.04526
1.03169
1.04569
1.03112
1.0458
1.03056
1.04613
1.02966
1.04618
1.02868
1.04618
1.02767
1.04604
1.02648
1.04603
1.02522
1.04586
1.02397
1.04559
1.02197
1.04492
1.0198
1.04393
1.01711
1.04355
1.01374
1.04387
1.00932
1.04405
1.00546
1.04514
1.0002
1.06736
0.916735
1.57632
1.02275
1.04178
1.02364
1.03773
1.02625
1.03579
1.02879
1.03742
1.0317
1.03909
1.03425
1.04088
1.03455
1.04083
1.0358
1.04142
1.0355
1.04146
1.03476
1.04179
1.03502
1.04149
1.03494
1.04149
1.03505
1.04142
1.03488
1.04142
1.03476
1.04197
1.03462
1.04224
1.03426
1.04233
1.03387
1.04295
1.0336
1.04316
1.03333
1.04381
1.03316
1.04411
1.03263
1.04444
1.03229
1.04482
1.03179
1.04529
1.03119
1.04569
1.03035
1.04574
1.02954
1.04567
1.02879
1.04532
1.02777
1.04535
1.02646
1.04511
1.02501
1.0451
1.02322
1.0445
1.02165
1.0438
1.01982
1.04293
1.01752
1.04284
1.01386
1.04345
1.0096
1.04409
1.00559
1.04507
1.0008
1.06531
0.919585
1.57289
1.04711
1.02233
1.04316
1.02294
1.04601
1.02693
1.04492
1.02748
1.04566
1.03093
1.04672
1.03229
1.04562
1.03276
1.04376
1.03341
1.04298
1.03423
1.04266
1.03515
1.04241
1.03468
1.04238
1.03483
1.04247
1.03473
1.04235
1.03471
1.04244
1.0346
1.04232
1.03434
1.04251
1.03405
1.04282
1.0335
1.04337
1.03332
1.04367
1.03322
1.04373
1.03273
1.04432
1.0325
1.04478
1.03214
1.04522
1.03172
1.04558
1.03117
1.04571
1.03059
1.04596
1.02973
1.04608
1.0287
1.04611
1.02774
1.04579
1.02656
1.04573
1.02529
1.04562
1.024
1.04527
1.02206
1.04457
1.01991
1.04353
1.01727
1.04323
1.01383
1.04359
1.00931
1.04387
1.00549
1.04499
1.00207
1.06359
0.920713
1.57238
1.02333
1.04129
1.02415
1.03726
1.02653
1.03546
1.02889
1.03717
1.03184
1.03889
1.03465
1.04071
1.03497
1.04134
1.0357
1.04106
1.03589
1.04122
1.03556
1.0415
1.03532
1.0417
1.03538
1.04154
1.0352
1.04149
1.03521
1.04132
1.03515
1.04135
1.03484
1.04178
1.03462
1.04221
1.03432
1.04234
1.03401
1.0428
1.03368
1.04309
1.0334
1.0437
1.03326
1.044
1.03276
1.04438
1.03239
1.0448
1.0319
1.04523
1.03128
1.04561
1.03045
1.04567
1.02959
1.04552
1.02885
1.04516
1.02786
1.04515
1.02654
1.04481
1.02512
1.0449
1.02334
1.0442
1.02177
1.04354
1.01989
1.04265
1.01758
1.04256
1.01396
1.04316
1.00968
1.04387
1.00558
1.04497
1.00216
1.06173
0.923554
1.56843
1.04646
1.02286
1.04256
1.02303
1.0454
1.0269
1.04456
1.02745
1.0453
1.03107
1.04637
1.03289
1.04497
1.03284
1.04321
1.03379
1.04302
1.03464
1.04223
1.03505
1.04221
1.03537
1.04224
1.03498
1.04218
1.03504
1.04221
1.03502
1.04239
1.03486
1.04234
1.03474
1.04222
1.0344
1.04249
1.03413
1.04284
1.03367
1.04324
1.03342
1.04359
1.03329
1.04368
1.03291
1.04426
1.03258
1.04469
1.03225
1.0451
1.03171
1.0455
1.03122
1.04561
1.03062
1.04587
1.02976
1.04592
1.02872
1.04589
1.0278
1.04557
1.0267
1.04553
1.02534
1.04536
1.02408
1.04488
1.02214
1.04418
1.02004
1.0432
1.01739
1.0429
1.01391
1.04322
1.0094
1.04375
1.00549
1.04496
1.00317
1.06025
0.923984
1.56636
1.02387
1.04075
1.02465
1.03672
1.02681
1.03517
1.029
1.03693
1.03197
1.03869
1.03504
1.04072
1.03541
1.04092
1.03546
1.04101
1.03633
1.0411
1.03605
1.04157
1.03595
1.04137
1.03558
1.04134
1.03573
1.04137
1.03549
1.04129
1.0353
1.04128
1.03525
1.0413
1.03492
1.04181
1.03469
1.04214
1.03442
1.04234
1.03412
1.04272
1.0338
1.04303
1.03353
1.04366
1.03332
1.04397
1.03287
1.04435
1.03248
1.04476
1.03201
1.04513
1.03132
1.04546
1.03053
1.04552
1.02965
1.04539
1.02888
1.04505
1.0279
1.04497
1.0266
1.04461
1.02527
1.04463
1.02341
1.04397
1.02191
1.04318
1.01996
1.04235
1.01772
1.04228
1.01405
1.04277
1.00988
1.04369
1.00557
1.045
1.00276
1.05933
0.928284
1.56351
1.04575
1.02352
1.04194
1.02312
1.0446
1.02687
1.04421
1.02743
1.04495
1.0312
1.04613
1.03299
1.04492
1.03358
1.04371
1.03482
1.04286
1.03485
1.04217
1.03535
1.04185
1.03567
1.04186
1.03564
1.04197
1.03534
1.04205
1.0353
1.04225
1.0351
1.04219
1.03499
1.04223
1.03486
1.04221
1.03451
1.04246
1.03415
1.04279
1.03373
1.04325
1.03355
1.0435
1.03339
1.04366
1.033
1.04421
1.03264
1.04455
1.03234
1.04501
1.03182
1.04539
1.03129
1.04555
1.03065
1.04578
1.02975
1.04578
1.02876
1.04568
1.02786
1.04535
1.02676
1.04529
1.02544
1.04512
1.02421
1.0446
1.02229
1.04393
1.02012
1.04278
1.0175
1.04255
1.01402
1.04275
1.0095
1.04361
1.00552
1.04492
1.00328
1.06009
0.921742
1.56224
1.02453
1.04036
1.02512
1.03619
1.02737
1.03491
1.02908
1.03669