/*--------------------------------*- C++ -*----------------------------------*\
| =========                 |                                                 |
| \\      /  F ield         | OpenFOAM: The Open Source CFD Toolbox           |
|  \\    /   O peration     | Version:  2206                                  |
|   \\  /    A nd           | Website:  www.openfoam.com                      |
|    \\/     M anipulation  |                                                 |
\*---------------------------------------------------------------------------*/
FoamFile
{
    version     2.0;
    format      ascii;
    arch        "LSB;label=32;scalar=64";
    class       volScalarField;
    location    "210";
    object      pPrime2Mean;
}
// * * * * * * * * * * * * * * * * * * * * * * * * * * * * * * * * * * * * * //

dimensions      [2 -2 -4 0 0 0 0];

internalField   nonuniform List<scalar> 
93840
(
0.103494
0.00931068
0.145297
0.006745
0.0117339
0.172305
0.00894136
0.00181361
0.00764775
0.112287
0.000251369
0.00347993
0.00224451
0.00668188
0.104555
8.90667e-05
0.00382922
0.00284046
0.00648714
0.00495871
0.124266
0.000231863
0.00206261
0.00274266
0.00630889
0.00467473
0.0103917
0.154462
0.000108178
0.00272958
0.00214618
0.00179176
0.00415127
0.00706326
0.0106218
0.193688
0.000218653
0.00144788
0.00237205
0.0014646
0.00140188
0.00636611
0.0024229
0.0114941
0.195041
0.000151485
0.00113716
0.00164702
0.00177415
0.00299208
0.00238379
0.00376213
0.00265941
0.0109208
0.232715
0.000199921
0.000695885
0.00154943
0.00116705
0.00153891
0.00348567
0.00265033
0.0020526
0.00277342
0.0126061
0.211012
0.000149622
0.000966279
0.00135037
0.00128288
0.00241608
0.00181021
0.00321299
0.00166718
0.00165208
0.00336226
0.0122184
0.229892
0.000184637
0.000621999
0.00153023
0.00104108
0.00118352
0.00292137
0.00141108
0.00166247
0.00136544
0.00185399
0.00358515
0.0126674
0.219385
0.000170702
0.000821721
0.00150658
0.00126623
0.00165784
0.00136027
0.00249268
0.00144616
0.0011625
0.00179314
0.00140103
0.00258332
0.0122673
0.238275
0.000166555
0.000544064
0.00156803
0.00115606
0.00105216
0.00255515
0.00088673
0.00200928
0.00105107
0.00141665
0.00167332
0.00178036
0.00336343
0.0126883
0.223643
0.000170316
0.000705461
0.00156293
0.00123587
0.00135925
0.00110925
0.00192214
0.00107066
0.00120439
0.00131201
0.00111037
0.00171152
0.00152682
0.00282013
0.0122459
0.243806
0.000168362
0.000514206
0.00164299
0.00122053
0.000939989
0.00231798
0.000620206
0.00188533
0.000825412
0.00149707
0.00118142
0.00146664
0.00181023
0.00172739
0.00308708
0.0126269
0.228167
0.000197559
0.000634973
0.00168241
0.00122876
0.0011245
0.00100959
0.00153707
0.00077085
0.00122934
0.000996907
0.00104694
0.00119817
0.00111838
0.00169054
0.00155016
0.00283052
0.0121357
0.24826
0.000190811
0.000540437
0.00171064
0.00127021
0.000846783
0.0021381
0.000454812
0.00173947
0.000639804
0.00158077
0.000839721
0.0014408
0.001174
0.00150716
0.00184683
0.00170945
0.00296487
0.0125222
0.231413
0.000228254
0.000590235
0.00177294
0.00124454
0.000999822
0.000957251
0.00127578
0.000607001
0.00112597
0.000737888
0.001085
0.00095403
0.00099746
0.00117984
0.00115112
0.00172395
0.00148164
0.00285203
0.0119827
0.250574
0.000238252
0.000599804
0.00176443
0.00130637
0.000795754
0.00200023
0.000386423
0.00160793
0.000530066
0.00160782
0.000669327
0.00138429
0.000877147
0.0013612
0.00126424
0.00147391
0.00178459
0.001589
0.00290249
0.0123993
0.234125
0.000262901
0.000562586
0.00173796
0.00127258
0.000846672
0.00091162
0.00106503
0.000516635
0.000959367
0.000602389
0.000950826
0.000728983
0.000973479
0.000906222
0.000981456
0.00111496
0.0010929
0.00173518
0.00138319
0.00286211
0.0118479
0.250982
0.000322566
0.000674078
0.00176965
0.00128193
0.000752791
0.00186683
0.000388054
0.0015046
0.000454944
0.00163833
0.000527001
0.00141677
0.000710215
0.0013314
0.000951748
0.00126811
0.00115516
0.00141038
0.00179865
0.00145804
0.00285336
0.0122972
0.237263
0.000284337
0.000581797
0.00173575
0.00130216
0.000763664
0.000886709
0.000902826
0.000481588
0.000845698
0.000527591
0.000813875
0.000601304
0.000825612
0.000716845
0.000934225
0.000852715
0.000988297
0.00112152
0.00104322
0.00174565
0.00129939
0.00286455
0.0116868
0.250333
0.000361508
0.000782354
0.00177643
0.0012793
0.000745616
0.0017764
0.000394612
0.0013655
0.000375453
0.00148167
0.000438446
0.00123325
0.000571744
0.00130894
0.000714744
0.00101196
0.000936718
0.00113431
0.00108496
0.00129526
0.00178329
0.0014047
0.00279919
0.0117804
0.253759
0.000302357
0.000651597
0.00171238
0.00134483
0.000708993
0.000871225
0.000800978
0.000503459
0.000747991
0.000489659
0.000668486
0.000519475
0.000666048
0.000613374
0.000776714
0.000682665
0.000904415
0.000849056
0.00102875
0.00110618
0.00105197
0.00178711
0.00124744
0.00286503
0.0106319
0.261407
0.000368222
0.000844969
0.00185201
0.00127606
0.000746003
0.00170329
0.000390206
0.00120765
0.000343492
0.00127229
0.000408821
0.00105403
0.000468174
0.00119237
0.000597245
0.00108224
0.000755497
0.00102276
0.000879239
0.00103709
0.0010654
0.00123905
0.00178458
0.00135779
0.00281182
0.0129182
0.25147
0.000318601
0.000728169
0.00168267
0.00138027
0.000661271
0.000865191
0.000747521
0.00052575
0.000695096
0.000467787
0.000716823
0.000479689
0.000636524
0.000522338
0.000645179
0.000645988
0.000762317
0.000698324
0.000870649
0.000857834
0.00107457
0.00110306
0.00102733
0.00180069
0.00116107
0.00315543
0.0118849
0.252953
0.00036467
0.000819621
0.00191006
0.00117693
0.000737462
0.00160174
0.000404543
0.00106223
0.000328903
0.00110712
0.000355376
0.0009611
0.000413909
0.000995005
0.000487249
0.00098962
0.000583513
0.000976543
0.000748836
0.00103031
0.000861829
0.0010356
0.00109787
0.00120562
0.0017973
0.00127557
0.00296833
0.0118982
0.246705
0.000352249
0.00075667
0.00161313
0.00138564
0.000637342
0.000869262
0.000685853
0.000544088
0.00064489
0.000488348
0.000642949
0.000475058
0.000614841
0.000482151
0.00064048
0.000548361
0.000647318
0.000646415
0.000772533
0.000709481
0.000850213
0.000869383
0.00101038
0.00114765
0.00104186
0.00182386
0.00114348
0.00287353
0.0110278
0.250491
0.000351419
0.000789879
0.00194521
0.00110726
0.000742189
0.00152243
0.000437179
0.000906987
0.000365075
0.000901979
0.000329063
0.000833513
0.000402813
0.000879084
0.000413252
0.000914479
0.000458143
0.000935969
0.000558199
0.000811817
0.000718367
0.00101185
0.000852158
0.00106732
0.00112096
0.00114148
0.00178792
0.00127958
0.00282071
0.0111606
0.245103
0.000410357
0.000741729
0.0015241
0.00138261
0.000611071
0.000869481
0.000613294
0.000552681
0.000607661
0.000484386
0.000641571
0.000482171
0.000614086
0.000454052
0.000597532
0.000467684
0.000624561
0.000568909
0.000632642
0.000636034
0.000756275
0.000717671
0.00083116
0.000887421
0.00098364
0.00117604
0.00108583
0.00179896
0.0011248
0.00288738
0.0103447
0.24879
0.000346158
0.000820524
0.00201009
0.0010517
0.000744131
0.00140927
0.000471148
0.000774174
0.000418864
0.000702646
0.000372707
0.000693559
0.000385029
0.000766059
0.000411468
0.000833027
0.000413892
0.000829013
0.000447858
0.000873333
0.000564399
0.000878129
0.000700618
0.000959662
0.000837927
0.00102926
0.00115115
0.00111196
0.00177156
0.00129588
0.00283479
0.0105688
0.244225
0.000449984
0.0008286
0.00140702
0.00139714
0.00059971
0.000872015
0.000550492
0.000557785
0.000559439
0.000484002
0.000573196
0.000447948
0.000579214
0.000448592
0.000560289
0.000424598
0.000536699
0.000457358
0.000594318
0.000544616
0.000618788
0.000633654
0.000738007
0.000724537
0.000794843
0.000882074
0.000958583
0.00118763
0.00106946
0.00180238
0.00111236
0.00280632
0.00977184
0.248408
0.000341438
0.000822271
0.0020505
0.00100735
0.000746795
0.00132143
0.0005024
0.000662716
0.000457308
0.000615848
0.000404882
0.000625716
0.000388499
0.000647973
0.00042039
0.000695861
0.00041433
0.000747878
0.00044049
0.00075584
0.000457361
0.000824596
0.000557668
0.000851524
0.000683843
0.000966847
0.000839729
0.00103416
0.00113772
0.00113831
0.00176792
0.0012723
0.00283653
0.0122218
0.244166
0.000472131
0.000894456
0.00130637
0.00140071
0.000580495
0.000861132
0.00050499
0.000564071
0.000506844
0.000466852
0.000542931
0.000438388
0.000504501
0.000414783
0.000513283
0.000423412
0.000516433
0.000412779
0.00051643
0.000447052
0.00056749
0.000547309
0.000609444
0.000610241
0.000723407
0.000705931
0.000767398
0.000883548
0.000946846
0.00120219
0.00105585
0.0018092
0.00115636
0.00316342
0.011515
0.247686
0.000329608
0.000783392
0.00210945
0.000957434
0.000757863
0.00124711
0.000519966
0.00057706
0.000492377
0.000557423
0.000455197
0.000523844
0.000416412
0.000550859
0.00038616
0.000546624
0.000408253
0.000591098
0.000413601
0.000644868
0.000441491
0.000671814
0.000479217
0.000740568
0.000538494
0.000835613
0.000645785
0.000962202
0.000834951
0.00103068
0.00112498
0.00115268
0.0017598
0.00139438
0.00306435
0.0112057
0.243249
0.000506155
0.000973334
0.00121445
0.00142135
0.000555758
0.000848592
0.000480097
0.000567169
0.000471581
0.000519236
0.000481084
0.000449131
0.000461525
0.000406823
0.000442339
0.000393485
0.000461797
0.000387412
0.000509957
0.000401464
0.000515059
0.00043621
0.000569636
0.00050458
0.000644097
0.000574096
0.000716799
0.000698868
0.000816012
0.000864857
0.00093545
0.00120669
0.0010507
0.00179966
0.00120277
0.00297643
0.0106911
0.246798
0.000353621
0.000767772
0.00213476
0.00088462
0.000784994
0.00116982
0.000525957
0.000511124
0.000506248
0.000503147
0.000467292
0.000449111
0.000438425
0.000492677
0.000416837
0.000471677
0.000376401
0.000495566
0.000408954
0.000506269
0.000403776
0.000610172
0.000431086
0.0006579
0.000469181
0.000723506
0.000519465
0.000842975
0.00064703
0.000942061
0.000806914
0.00104831
0.00113031
0.00116269
0.00174315
0.00130259
0.00291623
0.0103852
0.243112
0.000527767
0.00106327
0.00113668
0.00145047
0.000534926
0.000852201
0.000471443
0.0005738
0.000457607
0.000540223
0.000461365
0.000455738
0.000416196
0.000410529
0.000426673
0.000392247
0.000408087
0.000380584
0.000433698
0.000373322
0.000472736
0.000368799
0.000508917
0.000420945
0.000570438
0.000478326
0.000649049
0.000564911
0.000716102
0.000693897
0.000813981
0.000879349
0.000939565
0.0012192
0.00106444
0.00179569
0.00112942
0.00297977
0.0122574
0.2465
0.000371462
0.000748027
0.00216216
0.000828645
0.000820066
0.00109678
0.000523781
0.00046005
0.000505972
0.000454935
0.000459316
0.000419678
0.000451317
0.000427684
0.000422025
0.000412538
0.000405971
0.000430264
0.000364014
0.000437708
0.000403584
0.000497905
0.000382463
0.000588658
0.000422175
0.000639557
0.000451363
0.000718567
0.000505004
0.000837742
0.000618214
0.000951915
0.000795977
0.00104683
0.00114052
0.00117791
0.00174408
0.00129366
0.00338047
0.0119352
0.242467
0.000542958
0.00114469
0.00104553
0.0014608
0.000506065
0.000855862
0.00047094
0.000579447
0.000434262
0.000520696
0.000421489
0.000437174
0.000391244
0.000447605
0.000398533
0.000392734
0.000399803
0.000369683
0.000385958
0.000357157
0.000420986
0.000368898
0.000467351
0.000357962
0.000501116
0.000412388
0.000566249
0.000455694
0.000645598
0.000550915
0.000724446
0.000685232
0.000817597
0.000877571
0.000961935
0.00121786
0.00107105
0.00178973
0.0012881
0.00327223
0.0111889
0.245897
0.000395957
0.000726092
0.00220139
0.00079236
0.000853995
0.00105414
0.000519689
0.000427007
0.000522574
0.000400134
0.000472246
0.000390941
0.000437143
0.000382493
0.000416381
0.000393641
0.000384093
0.000386428
0.000310151
0.000409788
0.000344441
0.000422817
0.000308752
0.000494678
0.000371739
0.000547753
0.000379792
0.000643007
0.000449348
0.000705851
0.000503171
0.000829885
0.000607069
0.000940865
0.000793412
0.00105836
0.00114774
0.00119936
0.00173333
0.00136803
0.00312154
0.0109443
0.241068
0.000551298
0.00120577
0.000950223
0.00145924
0.000475236
0.000876786
0.000477015
0.000571226
0.000417018
0.00054144
0.000376845
0.000467893
0.000370716
0.000406507
0.000378205
0.000414505
0.00036258
0.000374454
0.000374037
0.000354397
0.000374331
0.00034785
0.000416675
0.000342635
0.000463743
0.000344035
0.00051134
0.000379947
0.000567549
0.000445612
0.00064868
0.000544422
0.000721888
0.000677706
0.000822655
0.000875328
0.000967681
0.0012091
0.00107109
0.00177496
0.00116858
0.00301702
0.010377
0.244223
0.000416131
0.000705164
0.0022086
0.000742531
0.00087852
0.00100882
0.000510941
0.000410228
0.000544879
0.000357649
0.000481576
0.000377632
0.000442871
0.000353807
0.00039385
0.000377343
0.000324751
0.000351455
0.00028955
0.000350435
0.000318503
0.000363133
0.00033478
0.000416891
0.000327859
0.000469785
0.000349383
0.000530069
0.000380451
0.000614802
0.000435348
0.000692962
0.000495846
0.000815818
0.00060209
0.000938807
0.000785466
0.00108294
0.00114297
0.00122918
0.00173558
0.00130192
0.00292115
0.0100952
0.239977
0.000545454
0.00125331
0.000902337
0.00145019
0.000458059
0.000910691
0.000478444
0.000556544
0.000417857
0.000528633
0.000370221
0.000491132
0.000330405
0.000437023
0.000345514
0.000391837
0.000364679
0.000370918
0.000349557
0.00035392
0.000356284
0.000342699
0.000364662
0.000333724
0.000400853
0.000336167
0.000456137
0.000343314
0.000515619
0.00037631
0.000579813
0.000429446
0.000651042
0.000541456
0.000720146
0.000692386
0.000823953
0.000867954
0.00097542
0.00119803
0.00107962
0.0017751
0.0011287
0.00299482
0.0115948
0.243211
0.000441597
0.000697988
0.00217199
0.000714418
0.000889728
0.00095739
0.000509208
0.000398562
0.000571026
0.00031057
0.00049962
0.00032257
0.000424937
0.000369146
0.000379438
0.000321678
0.00041302
0.000322487
0.000334335
0.000327928
0.000293685
0.000329758
0.000309064
0.000359419
0.000319025
0.000407187
0.000332588
0.000452513
0.000344881
0.00050062
0.00037528
0.000602777
0.000424595
0.000690111
0.000497984
0.000791623
0.000607596
0.000934012
0.000781824
0.00108737
0.00114016
0.00124334
0.0017362
0.00129974
0.00336558
0.0113677
0.238748
0.000563098
0.00128856
0.000864947
0.00144375
0.000454444
0.0009425
0.000464385
0.000550423
0.000422643
0.000491667
0.000345783
0.000474933
0.000314349
0.000447305
0.000287732
0.000401515
0.000317095
0.000347037
0.000351546
0.00033818
0.000342799
0.000349867
0.00034604
0.000333189
0.000350392
0.000334773
0.000399904
0.000331625
0.00044647
0.000332309
0.000501916
0.000377187
0.000588886
0.000439827
0.000653243
0.000538601
0.000704227
0.000693172
0.000839631
0.000865622
0.000992529
0.00118857
0.00109281
0.0017719
0.00128354
0.00326124
0.010494
0.241997
0.000471928
0.000691389
0.00213882
0.000705408
0.000889017
0.000913426
0.000514176
0.000381681
0.000582402
0.000271768
0.00050706
0.000286666
0.000427126
0.000291652
0.000412099
0.000303869
0.000335946
0.000308668
0.000354411
0.000309136
0.000327244
0.000309227
0.000299468
0.000322291
0.000303706
0.000363024
0.000319353
0.000378368
0.000322
0.000435411
0.000342378
0.000519413
0.000370984
0.000596026
0.000420522
0.000685997
0.000492282
0.000787613
0.000601308
0.000937876
0.00077885
0.00109381
0.00112232
0.00121458
0.00172622
0.0013504
0.00313081
0.0104156
0.237791
0.000558051
0.00130343
0.000835129
0.0014259
0.00045622
0.000962365
0.000443964
0.000560023
0.000436584
0.000467469
0.000335166
0.000456496
0.000287382
0.000427582
0.00029004
0.000408685
0.000278004
0.000381195
0.000287888
0.000329772
0.000341875
0.000319463
0.000331701
0.000345473
0.000329064
0.000339139
0.000343795
0.000328338
0.000399801
0.000327454
0.000435079
0.000319886
0.000496614
0.000359325
0.00058939
0.00043921
0.000653839
0.000537871
0.000710315
0.000687264
0.00084671
0.000862347
0.001006
0.00116252
0.00112056
0.00176925
0.00121167
0.00305548
0.00967155
0.241234
0.000499415
0.000700044
0.00208278
0.00069292
0.000879056
0.000880877
0.000520732
0.000368241
0.000570106
0.000262556
0.000513527
0.000260467
0.000427032
0.000272164
0.000399181
0.000257396
0.00036327
0.000295357
0.000329485
0.000298341
0.000331943
0.000287021
0.000300554
0.000299994
0.000287084
0.000323251
0.000291051
0.000352669
0.000315668
0.00036695
0.000317446
0.000433541
0.000331079
0.000505227
0.000378762
0.000585383
0.000422601
0.000683294
0.000494762
0.000775524
0.000597819
0.000945742
0.000782492
0.00109721
0.00109489
0.00122053
0.00173225
0.00130386
0.00309092
0.0114478
0.236809
0.000552929
0.00130446
0.00080682
0.00140297
0.000458507
0.000974237
0.000424951
0.000570409
0.000453931
0.000462465
0.00033393
0.000428147
0.000302935
0.000426142
0.000266305
0.000393259
0.000270769
0.000379876
0.000258946
0.000365476
0.00028878
0.000317383
0.000320605
0.000303946
0.000315915
0.000329919
0.000331163
0.000330729
0.0003443
0.000319157
0.000397777
0.000323035
0.000422508
0.000318269
0.000498284
0.000358052
0.000586472
0.000436645
0.00065231
0.000546826
0.000709663
0.000663581
0.000851537
0.000864814
0.00100734
0.00113859
0.0011212
0.00176879
0.00119145
0.00339516
0.0107214
0.240084
0.000542911
0.000721375
0.0020071
0.000694174
0.000861944
0.000854252
0.000522067
0.000359797
0.000548338
0.00025864
0.00051833
0.000263625
0.000443907
0.000235535
0.000387937
0.000255278
0.000368821
0.000260236
0.000333784
0.000280086
0.000296042
0.000279416
0.00032451
0.00027764
0.000298492
0.000297405
0.000282419
0.000318668
0.000291329
0.000341289
0.000294711
0.000367273
0.000315386
0.000432036
0.000330213
0.00049402
0.000381462
0.000574408
0.000427174
0.000676666
0.000498144
0.000779789
0.000574416
0.000944255
0.00076925
0.00108693
0.00107444
0.00123264
0.00172549
0.0014397
0.00325642
0.0104977
0.23562
0.000542979
0.0012932
0.000803856
0.00137767
0.00046309
0.000981628
0.00040927
0.000581928
0.000458769
0.000458502
0.000329051
0.00041761
0.000295937
0.000395341
0.000280314
0.000373648
0.000251261
0.000362799
0.00026549
0.000351931
0.000253637
0.00034024
0.000280527
0.000303744
0.000310091
0.000301303
0.000313855
0.000325049
0.000323387
0.000317874
0.000347274
0.000321024
0.000394517
0.000320393
0.000425917
0.00032232
0.000499664
0.000362723
0.000590033
0.000439117
0.000657667
0.000550097
0.000717714
0.000673425
0.000852042
0.000825473
0.00102057
0.00114441
0.00112607
0.00176528
0.00125281
0.00315737
0.00985926
0.238982
0.000588188
0.00072547
0.00193709
0.000693322
0.000840308
0.000827978
0.000520421
0.000353547
0.000528827
0.000258861
0.00050231
0.000240981
0.000437805
0.000231574
0.00038886
0.000221564
0.000372847
0.000241147
0.00035387
0.000252915
0.000332576
0.000266089
0.000300118
0.000263805
0.000279611
0.000277199
0.000288354
0.000291311
0.000273591
0.000306046
0.000292492
0.00033491
0.000288662
0.00036925
0.000313189
0.000427343
0.000328901
0.000485576
0.000374003
0.000572379
0.000426678
0.000662725
0.000497197
0.000778411
0.000576558
0.000955779
0.00074049
0.00109684
0.0010748
0.00123631
0.00172714
0.00133669
0.00306325
0.00971293
0.234352
0.00052469
0.00125985
0.000802418
0.00129872
0.000473973
0.000982943
0.000392124
0.000590488
0.000457543
0.000468145
0.000321662
0.000428963
0.000298571
0.000393261
0.00024488
0.000381339
0.000257148
0.000359598
0.000250624
0.000346556
0.000243714
0.000333369
0.000253156
0.000319831
0.000275096
0.00029686
0.000293161
0.000292548
0.000306275
0.000317979
0.000321535
0.000316875
0.000344862
0.000318241
0.000390991
0.000322462
0.000427907
0.000324659
0.000501121
0.000359808
0.000590229
0.000441528
0.000657597
0.000545073
0.000723237
0.000661084
0.000863857
0.000840606
0.00102768
0.00114481
0.00113756
0.00176894
0.00117142
0.00302017
0.00910561
0.237388
0.000619204
0.00073284
0.00184675
0.000715358
0.000817281
0.000798442
0.000520029
0.000352375
0.000505139
0.000265152
0.000495082
0.000215668
0.000398242
0.000205131
0.000356373
0.000221397
0.00036201
0.000209338
0.000358348
0.00022426
0.000313959
0.000241539
0.000320516
0.000256546
0.000307811
0.000261036
0.000281051
0.000273659
0.000280273
0.000283475
0.000276125
0.000299903
0.000288022
0.000333121
0.000291329
0.000373027
0.000313889
0.000423092
0.000330677
0.000482852
0.000373625
0.0005683
0.000427551
0.000665607
0.000500905
0.000775386
0.00057184
0.000951234
0.000740152
0.00110364
0.00107341
0.00124363
0.00172471
0.00127703
0.00293859
0.00906632
0.232569
0.000510028
0.00123263
0.000810289
0.00128851
0.000486055
0.000980761
0.000375361
0.000602256
0.000458482
0.000476558
0.000316676
0.000427435
0.000309166
0.000387269
0.000278534
0.000374843
0.000228347
0.000363519
0.000238957
0.000353222
0.000245569
0.000326048
0.000239007
0.000322607
0.000247002
0.000287896
0.000267527
0.00028889
0.000286701
0.000291748
0.000306139
0.000305911
0.000315165
0.000309636
0.000340967
0.000317621
0.000391526
0.000323755
0.000430714
0.000325407
0.000507663
0.000357499
0.000593076
0.000443158
0.000663606
0.000541097
0.000731637
0.000655096
0.00087634
0.000843678
0.00103128
0.00114144
0.00113908
0.00175955
0.00116363
0.00293059
0.00848009
0.235945
0.000658242
0.000747937
0.00179049
0.000740863
0.000790829
0.000769038
0.000521214
0.00035397
0.000482736
0.000290295
0.000470212
0.000221538
0.000418485
0.000191825
0.000354432
0.000208375
0.000336312
0.000202804
0.000344877
0.000202014
0.000342749
0.000217658
0.000316024
0.000229207
0.000311918
0.000249685
0.000303223
0.000256627
0.000275408
0.000270681
0.000275646
0.000278015
0.000277926
0.000300294
0.000288662
0.000330976
0.00029803
0.000369049
0.000315028
0.000419123
0.000328467
0.000478877
0.000372289
0.000567889
0.000427279
0.00066905
0.000496493
0.000775947
0.00057329
0.000921788
0.000746064
0.0011087
0.00107707
0.00124855
0.00172858
0.00125394
0.00296214
0.00992826
0.231116
0.000477951
0.00119805
0.000826865
0.0012779
0.000498354
0.000976313
0.000360595
0.000619558
0.000465419
0.000480376
0.000300299
0.000440625
0.000308378
0.000395443
0.000274985
0.000377442
0.000251569
0.000364935
0.000225253
0.000346098
0.000225012
0.000336934
0.000234472
0.000318498
0.000234447
0.000300002
0.000243539
0.000281991
0.000261166
0.000283434
0.000280218
0.00028587
0.000304362
0.000302882
0.000310888
0.000307571
0.00034121
0.000317191
0.000392039
0.000326047
0.00043516
0.00032654
0.000511737
0.00035831
0.000596104
0.000446402
0.000670826
0.000542345
0.000733956
0.000650185
0.000907346
0.000849891
0.00102793
0.00114194
0.00114103
0.00176402
0.00116223
0.00327391
0.00939913
0.234247
0.000674431
0.0007577
0.00170162
0.000763021
0.00076768
0.000741187
0.000521482
0.000357178
0.000468188
0.000304631
0.000445717
0.000238264
0.000414951
0.000188003
0.0003747
0.000186163
0.000345572
0.000191685
0.000330332
0.000189405
0.000329537
0.000198675
0.000325845
0.000206718
0.000308926
0.000228906
0.000310499
0.000247978
0.00029427
0.000254803
0.000271106
0.000269144
0.000267722
0.000277223
0.000276961
0.000298371
0.000288207
0.000327589
0.000303661
0.000369288
0.000317359
0.000419749
0.000329687
0.000479892
0.000366725
0.000573804
0.000425852
0.000673659
0.000495016
0.000777372
0.000579306
0.000923237
0.00075685
0.00111488
0.00108537
0.00125387
0.00172685
0.00135634
0.00320202
0.00909882
0.229434
0.000485347
0.00114807
0.000840967
0.00126907
0.000512554
0.000971449
0.000347881
0.000636256
0.000478335
0.000486496
0.000290715
0.000441621
0.000292125
0.000409611
0.000254279
0.000371756
0.000246823
0.000358526
0.0002315
0.000347191
0.000220764
0.000339711
0.000214709
0.000323999
0.000228986
0.000315043
0.00023542
0.000292212
0.000239013
0.000280833
0.000259351
0.00027775
0.000277206
0.000278726
0.000301331
0.000295887
0.000308055
0.000304461
0.000339821
0.000319073
0.000384866
0.000329746
0.000438333
0.00032517
0.000515896
0.000358087
0.00059791
0.000444785
0.000679151
0.000540365
0.000736484
0.000650735
0.00090354
0.000850239
0.00102598
0.00114576
0.00114815
0.00175372
0.00121014
0.00315123
0.0086677
0.232442
0.000676482
0.000764627
0.00167329
0.000787945
0.000747186
0.000718106
0.000517553
0.000364044
0.000465684
0.000312447
0.000421786
0.000254828
0.000405391
0.000189913
0.000357541
0.000180145
0.000348741
0.000194495
0.000333044
0.000182549
0.000326191
0.00018232
0.00031119
0.000193219
0.000309912
0.000198007
0.000299649
0.000222793
0.000306326
0.000242532
0.000287137
0.000253014
0.000268907
0.00026807
0.000267414
0.000275226
0.000275313
0.000298038
0.000288037
0.000326056
0.000307821
0.000370114
0.000314933
0.000420878
0.000328133
0.000486348
0.000369338
0.000575059
0.000423469
0.000668495
0.000492645
0.000770408
0.00058597
0.000926447
0.000765671
0.00111271
0.00109031
0.00125609
0.00172581
0.00130273
0.00309331
0.00841827
0.227883
0.000492183
0.00110364
0.000845943
0.00126461
0.00051767
0.000965525
0.000337637
0.000646355
0.000487403
0.000491037
0.000285118
0.000450192
0.000265711
0.000410624
0.000269905
0.00039121
0.000237869
0.000358438
0.000238892
0.000348472
0.000220556
0.000336672
0.000216228
0.000334873
0.000205951
0.000321199
0.000223025
0.000310578
0.000231765
0.000288738
0.000238697
0.000276265
0.000257774
0.000272242
0.000274447
0.00027654
0.000299175
0.000292148
0.000306955
0.000300576
0.000342245
0.00032143
0.00038715
0.000330434
0.000441295
0.000326563
0.000521555
0.00036169
0.000600729
0.00044348
0.000671938
0.000539102
0.000738232
0.000652762
0.000895582
0.000855361
0.00101945
0.00114799
0.00114678
0.00176058
0.00117229
0.00313967
0.00950872
0.230737
0.000678205
0.000774218
0.00164501
0.000813416
0.000728616
0.000696708
0.00051123
0.000372887
0.000470484
0.000323782
0.000405011
0.000270582
0.00039006
0.000218495
0.000366083
0.000176975
0.000326868
0.000187401
0.000314899
0.000188816
0.000316201
0.000180681
0.000311418
0.000185957
0.000299723
0.00018652
0.00029259
0.000194061
0.000296438
0.000221043
0.00030346
0.000237859
0.000284998
0.000249458
0.000265556
0.000265842
0.000264748
0.000273803
0.000272424
0.000300956
0.000286977
0.000326044
0.000310346
0.000374754
0.000317331
0.000427657
0.000329257
0.000485375
0.000362756
0.00057805
0.000420651
0.000684552
0.000494931
0.00076971
0.000596163
0.000921969
0.000772896
0.00110703
0.00108825
0.00122392
0.00173104
0.00128983
0.00345773
0.00926806
0.22642
0.000498441
0.00108251
0.000865945
0.00126194
0.000519662
0.000960377
0.000329405
0.000649149
0.000494875
0.00049102
0.000284597
0.000449264
0.000247895
0.000406784
0.000245074
0.000386091
0.000237609
0.000363399
0.000223672
0.000343857
0.000225249
0.000336277
0.000208021
0.000329846
0.000213097
0.000337653
0.000203776
0.000318644
0.000219579
0.000307214
0.000225656
0.000288853
0.000236418
0.000273738
0.000254291
0.000270047
0.000273451
0.00027407
0.000296208
0.000290662
0.000306184
0.000298697
0.000342343
0.000321428
0.000387849
0.000329281
0.000446706
0.00032605
0.000522911
0.00036409
0.000607078
0.000440699
0.000672181
0.000538711
0.000734699
0.000660001
0.000890818
0.000859818
0.0010149
0.00113841
0.00118226
0.0017691
0.00124707
0.00339505
0.00868155
0.228986
0.000681239
0.000772626
0.00161482
0.00083533
0.000712175
0.000680003
0.000505664
0.000379654
0.000475467
0.000332725
0.00039622
0.000266802
0.000366069
0.000236756
0.000353946
0.000191485
0.000321604
0.000182746
0.000320093
0.000178352
0.000311615
0.000177885
0.000305908
0.000184417
0.000292993
0.000182888
0.00028913
0.000190388
0.000287422
0.000192581
0.000288256
0.000217944
0.000292641
0.000234323
0.000283616
0.000247888
0.000263948
0.00026624
0.000265773
0.000272988
0.000271838
0.000299946
0.000285919
0.00032815
0.000312147
0.000377814
0.000318651
0.000429879
0.000330935
0.000494354
0.000355855
0.000580847
0.000415839
0.000689635
0.000498816
0.000767493
0.000603389
0.000920764
0.000782261
0.00110452
0.00107938
0.00120805
0.001739
0.00133025
0.00333274
0.0085173
0.224628
0.000500247
0.00106848
0.000883319
0.0012617
0.000524145
0.000956031
0.000322131
0.000649871
0.000499365
0.000487835
0.000284197
0.000459211
0.00025073
0.000403307
0.000228711
0.00036242
0.00022832
0.000372841
0.00020767
0.000346498
0.000218355
0.000335526
0.000215007
0.000330122
0.00020353
0.000327999
0.000204558
0.000318716
0.000201905
0.00031286
0.000214952
0.00030116
0.000221888
0.000286967
0.000232111
0.00027462
0.000249126
0.000266297
0.000271209
0.000273201
0.000292223
0.000287853
0.000307296
0.000298669
0.000344463
0.000323036
0.000388772
0.000327338
0.000442971
0.000326527
0.000524077
0.000355235
0.000611555
0.000433302
0.000673028
0.000536629
0.000735021
0.000668895
0.000886956
0.000865032
0.00101641
0.00111691
0.0011783
0.00177772
0.00118262
0.00326026
0.00796351
0.226773
0.000678521
0.000772574
0.00158514
0.000856052
0.00069798
0.000668795
0.000501347
0.000384909
0.00047672
0.000342006
0.000401829
0.000278759
0.000352624
0.000244389
0.000338867
0.000223155
0.000333727
0.000194695
0.000304372
0.000176086
0.000316468
0.000176128
0.000301981
0.000175286
0.000299046
0.000184505
0.00028698
0.000186079
0.000279175
0.000188945
0.000285761
0.000194302
0.000288363
0.000215789
0.000290023
0.00022738
0.000282575
0.000245068
0.000261349
0.000264785
0.000263079
0.00027327
0.000269362
0.000298455
0.000285248
0.000329965
0.000312765
0.000382477
0.00032295
0.000437118
0.000332201
0.000499285
0.000361423
0.000585124
0.000414793
0.000686938
0.0005037
0.000765873
0.000616781
0.000918368
0.00079142
0.00110445
0.00104949
0.00120468
0.00173831
0.00128331
0.00317202
0.00786194
0.222494
0.000505892
0.00105356
0.000903743
0.001257
0.000535336
0.000951452
0.000315413
0.000649422
0.000501068
0.000486567
0.00029497
0.000441792
0.000256672
0.000391549
0.000236119
0.000376135
0.000218453
0.000326884
0.000199616
0.000352519
0.000199874
0.000322484
0.000208341
0.00032847
0.000212
0.000324532
0.000201184
0.000319
0.000202765
0.000316065
0.000198302
0.000308198
0.000209338
0.000299554
0.000218673
0.000284566
0.000228992
0.000269297
0.000247385
0.000263393
0.000269653
0.000266244
0.000292009
0.000284541
0.0003082
0.000299965
0.000345273
0.000321921
0.000393013
0.00032704
0.000449601
0.000328323
0.000526905
0.000353553
0.00061326
0.000427391
0.000672135
0.000535655
0.000738549
0.000678133
0.000886479
0.000867903
0.00101746
0.00110131
0.00117625
0.001784
0.00116443
0.00312584
0.00736537
0.224678
0.000671954
0.000781523
0.00156469
0.000878505
0.000687797
0.000659535
0.000495742
0.000390723
0.000475758
0.000351102
0.000399492
0.000281204
0.000355201
0.000273001
0.000338825
0.000238047
0.000322274
0.000203844
0.000318001
0.000188397
0.000298733
0.000178698
0.000295723
0.000175126
0.000290534
0.000176241
0.000293012
0.000185943
0.000284267
0.000186394
0.000279054
0.000187573
0.000282941