/*--------------------------------*- C++ -*----------------------------------*\
| =========                 |                                                 |
| \\      /  F ield         | OpenFOAM: The Open Source CFD Toolbox           |
|  \\    /   O peration     | Version:  2206                                  |
|   \\  /    A nd           | Website:  www.openfoam.com                      |
|    \\/     M anipulation  |                                                 |
\*---------------------------------------------------------------------------*/
FoamFile
{
    version     2.0;
    format      ascii;
    arch        "LSB;label=32;scalar=64";
    class       volScalarField;
    location    "210";
    object      rho;
}
// * * * * * * * * * * * * * * * * * * * * * * * * * * * * * * * * * * * * * //

dimensions      [1 -3 0 0 0 0 0];

internalField   nonuniform List<scalar> 
93840
(
3.14971
0.41249
3.20515
1.44671
0.402312
3.13185
0.471186
1.11022
0.489212
2.68848
1.12015
0.907851
1.16077
0.644097
2.47745
0.952413
1.00557
0.876825
1.35245
0.729095
2.42701
1.02796
0.940602
1.06585
0.681634
1.2113
0.694421
2.4941
0.95213
1.01142
0.957483
1.14341
0.761024
1.25876
0.722583
2.52044
1.03712
0.927395
1.06896
0.971504
1.09887
0.807163
1.13171
0.7071
2.54201
0.967325
1.01446
0.935096
1.04393
0.97513
1.07213
0.966259
1.11585
0.71138
2.55435
1.04239
0.94007
1.0574
0.970224
1.05002
0.986033
1.01753
0.979738
1.10444
0.70579
2.56227
0.972065
1.02872
0.933341
1.05245
0.970745
1.03225
0.97985
1.04823
0.996551
1.0888
0.710444
2.56421
1.04215
0.964996
1.06553
0.983435
1.04648
0.984287
1.0453
0.991432
1.03194
0.984753
1.0849
0.707633
2.56598
0.972082
1.03031
0.933556
1.05482
0.971657
1.03683
0.992023
1.03728
0.992772
1.03972
0.998038
1.07943
0.712708
2.56551
1.03877
0.969688
1.0671
0.98604
1.04749
0.989301
1.05166
0.985453
1.04856
0.994304
1.03625
0.987462
1.07793
0.710495
2.56485
0.961721
1.03449
0.941597
1.05965
0.980071
1.04293
0.992726
1.03957
0.9965
1.03303
0.99437
1.03831
1.00008
1.07486
0.714738
2.56247
1.04267
0.961961
1.0718
0.991355
1.05392
0.992175
1.05438
0.992905
1.0491
0.990845
1.04653
0.994782
1.03563
0.988225
1.07407
0.713833
2.56051
0.968936
1.04684
0.953907
1.05656
0.980991
1.04118
0.998744
1.04319
0.991449
1.04229
0.998761
1.03528
0.995898
1.03872
1.00181
1.07201
0.718263
2.5572
1.03858
0.96971
1.06326
0.989288
1.05654
0.993136
1.05587
0.992167
1.04835
0.993382
1.04682
0.996834
1.04869
0.994289
1.0349
0.989402
1.07164
0.717482
2.55443
0.962902
1.03057
0.942976
1.05343
0.983298
1.03887
1.00497
1.04728
0.996571
1.0471
0.99845
1.0457
1.00426
1.03461
1.00159
1.03836
1.00131
1.07011
0.72172
2.55053
1.03986
0.954759
1.05978
0.99512
1.05782
0.990345
1.0579
0.999106
1.05638
0.995044
1.04941
0.994305
1.04821
0.997317
1.04895
0.998932
1.03609
0.989722
1.06976
0.721082
2.54673
0.963535
1.03508
0.966115
1.04946
0.98151
1.03291
1.00432
1.04655
1.0036
1.04827
0.997834
1.0488
1.00143
1.04512
1.00512
1.03639
0.998443
1.03682
0.999364
1.06878
0.725629
2.54264
1.04342
0.967944
1.05927
0.98744
1.06061
0.987277
1.05672
0.994431
1.05228
0.995116
1.05429
1.00334
1.05146
0.997329
1.04854
1.00311
1.04812
1.00327
1.03697
0.988255
1.06888
0.724869
2.53874
0.969913
1.04142
0.960657
1.04599
0.989466
1.03311
1.00688
1.04281
1.00218
1.04918
0.99885
1.04825
1.00001
1.05007
0.999277
1.04724
1.00643
1.03704
0.998824
1.03713
0.998464
1.0683
0.728979
2.53447
1.03851
0.970434
1.04554
0.985376
1.06043
0.984533
1.05569
0.991136
1.05063
0.998662
1.05436
0.999419
1.05098
0.999182
1.05279
0.999749
1.04944
1.00396
1.04805
1.01126
1.03607
0.987842
1.06865
0.728499
2.53057
0.96276
1.01926
0.953148
1.04507
0.991437
1.03175
1.00739
1.03929
1.0068
1.04559
1.00337
1.05104
1.00213
1.05158
0.997316
1.05157
1.00298
1.0469
1.00534
1.03704
0.995464
1.03821
0.997769
1.06826
0.733138
2.52603
1.03969
0.955195
1.05764
0.995188
1.0576
0.983753
1.0563
0.995378
1.04953
0.995676
1.05314
1.00123
1.05735
1.00427
1.05301
0.999527
1.05036
1.00387
1.0556
1.00823
1.04517
1.00837
1.03675
0.986838
1.06872
0.732602
2.52155
0.958361
1.04239
0.984735
1.04072
0.986414
1.03025
1.00853
1.03705
1.00283
1.04128
1.00304
1.04939
1.00599
1.04916
0.998882
1.05066
1.00553
1.05207
1.00505
1.04785
1.00622
1.04163
0.992212
1.03993
0.998557
1.06867
0.737807
2.51651
1.03958
0.97398
1.02117
0.971782
1.05216
0.98483
1.05648
0.994578
1.05301
0.995392
1.04631
1.00166
1.05037
1.00845
1.05075
1.00203
1.05521
1.00105
1.05306
1.00829
1.05506
1.01009
1.04952
1.01509
1.03541
0.986177
1.0695
0.737704
2.51163
0.968763
1.01432
1.01052
1.03787
0.996364
1.02975
1.00594
1.03891
1.00035
1.04329
1.00515
1.04011
1.00298
1.04775
1.0008
1.04925
1.00628
1.05072
1.00371
1.05242
1.00335
1.0478
1.0062
1.04116
1.00465
1.03892
0.999078
1.06977
0.743267
2.50602
1.03543
0.993011
1.00782
0.969843
1.05614
0.981598
1.05289
0.998683
1.05517
0.999375
1.04973
0.997882
1.04465
1.00297
1.0494
1.00364
1.05928
1.01248
1.05393
1.00259
1.05624
1.00835
1.05569
1.01038
1.04407
0.992699
1.03709
0.986564
1.07095
0.742959
2.50037
0.963817
1.01358
0.967155
1.03885
0.999565
1.02591
1.00442
1.03867
1.00347
1.04089
1.00719
1.03926
0.996919
1.0424
1.00359
1.05108
1.00476
1.05352
1.00794
1.05176
1.00297
1.05335
1.00309
1.05143
1.0075
1.04161
1.00775
1.03833
1.00044
1.0714
0.750571
2.49391
1.02991
0.965276
1.02585
0.984164
1.05471
0.98582
1.05254
1.00206
1.05274
0.998515
1.04496
0.995917
1.04897
1.00364
1.04676
1.00106
1.04997
1.00492
1.05348
1.01801
1.05344
1.00507
1.05461
1.01007
1.05703
1.01099
1.04696
0.991344
1.0409
0.985302
1.0724
0.750705
2.4875
0.953568
1.02454
0.973223
1.02921
0.995142
1.02302
1.00367
1.03439
1.00005
1.04045
1.00432
1.03976
0.999383
1.03796
1.00096
1.0447
1.00847
1.04995
1.00131
1.05008
1.00394
1.05118
1.01125
1.05363
1.00732
1.05066
1.0085
1.04256
1.00448
1.04343
1.00039
1.07282
0.759342
2.48323
1.02864
0.960425
1.0322
0.976449
1.0556
0.988491
1.04848
1.00268
1.05327
1.00112
1.05053
0.99806
1.04569
1.00035
1.04659
1.00058
1.0466
1.00018
1.04768
1.01278
1.04977
1.01469
1.05457
1.00178
1.0547
1.01385
1.05325
1.00915
1.04937
0.99273
1.04333
0.982907
1.07869
0.732827
2.47819
0.955152
1.01693
0.971028
1.02425
0.998146
1.02443
1.00234
1.03316
1.00137
1.03544
1.00951
1.03924
1.00062
1.03651
1.0005
1.03661
1.00081
1.0429
1.00643
1.05036
1.00288
1.05053
1.00645
1.05235
1.00969
1.05615
1.00817
1.04967
1.01012
1.04256
0.998489
1.04176
0.999783
1.09704
0.739238
2.4727
1.02818
0.978426
1.01727
0.972788
1.05289
0.987477
1.04602
1.00666
1.05044
1.00692
1.05163
1.00117
1.05045
1.00182
1.04691
0.9983
1.04706
1.00301
1.04716
1.00344
1.05026
1.00897
1.0537
1.01833
1.05684
1.00755
1.05818
1.00928
1.05055
1.00812
1.048
0.992227
1.04661
0.975189
1.09379
0.745545
2.46654
0.963571
1.01049
0.998708
1.02426
0.998269
1.02488
1.00122
1.03374
1.00198
1.03561
1.00462
1.03748
1.0062
1.0402
1.00135
1.03487
1.00167
1.03679
1.00337
1.04419
1.00749
1.04604
1.00579
1.05484
1.0059
1.05687
1.00918
1.05528
1.00722
1.04862
1.00554
1.04957
0.996097
1.04121
0.99081
1.08981
0.750456
2.46119
1.02428
0.979477
0.989384
0.960483
1.04881
0.989006
1.04051
1.00498
1.04763
1.00529
1.05292
1.00643
1.05366
1.00495
1.04979
1.00726
1.04643
0.999314
1.04568
1.00353
1.04709
1.00678
1.05366
1.01291
1.0577
1.01131
1.06022
1.01
1.05414
1.00864
1.05153
1.00911
1.05215
0.995373
1.04596
0.981134
1.08768
0.757491
2.45661
0.966687
1.01087
0.962363
1.01948
0.998538
1.02569
0.999087
1.03467
0.999928
1.03539
1.00055
1.03828
1.00639
1.03797
1.00429
1.03678
1.00313
1.03372
1.00427
1.03538
1.00299
1.04433
0.99957
1.05017
1.00434
1.05406
1.00826
1.05728
1.01749
1.05392
1.00505
1.0493
1.00777
1.04874
0.996703
1.04537
0.994278
1.0908
0.733679
2.45194
1.02183
0.968299
1.01799
0.977458
1.04907
0.989469
1.04022
1.00842
1.04584
1.01136
1.04761
1.00445
1.04982
1.00519
1.05168
1.00321
1.04739
1.01124
1.0397
0.996021
1.04875
1.01136
1.04871
1.01394
1.0502
1.01029
1.0585
1.01224
1.05589
1.01259
1.05793
1.01138
1.05496
1.00961
1.04971
0.994773
1.05186
0.982115
1.10258
0.740945
2.44664
0.968484
1.01463
0.969136
1.01327
0.997618
1.02572
0.996086
1.03492
1.00222
1.03207
0.999953
1.03384
1.00426
1.0383
1.00361
1.03686
1.00667
1.03834
1.00132
1.03522
1.00724
1.04112
1.00153
1.0444
1.00514
1.05283
1.01219
1.05333
1.01537
1.05497
1.01048
1.05454
1.01181
1.05036
1.00635
1.05128
0.996388
1.04708
0.986723
1.10044
0.74663
2.44154
1.027
0.962976
0.999898
0.982115
1.04798
0.992771
1.03979
1.00863
1.03866
1.00607
1.04457
1.00062
1.04259
0.999654
1.05069
0.999811
1.04919
1.00202
1.03483
1.01573
1.03988
0.99475
1.03619
1.01586
1.04595
1.01348
1.05584
1.01184
1.06005
1.01382
1.05659
1.00918
1.05898
1.01158
1.05529
1.00942
1.05133
0.995793
1.04931
0.980763
1.09631
0.754028
2.43606
0.9743
1.02106
0.987785
1.01469
0.995325
1.02678
0.997442
1.03312
1.00103
1.03375
0.999872
1.03824
1.00327
1.03118
1.00671
1.04128
1.00067
1.03761
1.00818
1.03462
1.00394
1.0345
1.01032
1.03586
1.00081
1.04518
1.00733
1.05277
1.01449
1.05519
1.01007
1.05989
1.01766
1.05524
1.0169
1.05026
1.00696
1.0511
0.99434
1.05003
0.987251
1.09104
0.757978
2.43113
1.02399
0.976751
1.00356
0.972438
1.04007
0.991925
1.03543
1.00844
1.03817
1.00327
1.04173
1.00714
1.03963
1.00015
1.04046
1.00189
1.03886
1.0092
1.03792
1.01827
1.0348
1.01486
1.04278
1.00269
1.03821
1.0119
1.04594
1.01891
1.05049
1.00996
1.05202
1.01143
1.05593
1.02115
1.05443
1.01821
1.04899
1.01193
1.05234
0.999214
1.04659
0.986322
1.08761
0.764836
2.42745
0.976503
1.01902
0.968054
1.01299
0.995317
1.02929
1.00059
1.0331
0.998899
1.03286
1.00035
1.03281
1.01153
1.03444
0.994724
1.03503
1.01255
1.03948
1.00543
1.03958
1.0071
1.03507
1.00689
1.03589
1.00709
1.03709
1.00308
1.04203
1.01185
1.05766
1.01559
1.05161
1.01579
1.05359
1.02804
1.05284
1.01744
1.05044
1.00294
1.05381
0.995638
1.0521
0.990659
1.09107
0.743263
2.42286
1.01514
0.98775
1.0147
0.97577
1.03678
0.994412
1.03567
1.00604
1.0364
1.00363
1.03616
1.01395
1.0341
0.991276
1.03248
1.00941
1.04137
1.01549
1.0385
1.01668
1.03422
1.01675
1.0356
1.01217
1.04304
1.00573
1.0408
1.01476
1.04382
1.01648
1.05073
1.01642
1.05604
1.02147
1.05105
1.0268
1.05037
1.01393
1.04818
1.01135
1.0527
0.99747
1.05104
0.988822
1.10364
0.748926
2.41794
0.97123
1.01277
0.972896
1.0105
0.991561
1.02738
0.999163
1.03074
1.00128
1.03611
1.00227
1.02753
1.01019
1.02862
1.01325
1.03469
1.00451
1.03713
1.00683
1.04368
1.01186
1.04028
1.00811
1.03531
1.00714
1.0341
1.01132
1.03694
1.00307
1.04344
1.01108
1.05469
1.0094
1.05543
1.02517
1.04867
1.02854
1.05122
1.01194
1.05167
1.00329
1.05631
0.996877
1.04632
0.981561
1.09999
0.754793
2.41294
1.01951
0.974753
1.00473
0.968699
1.03313
0.996669
1.03624
1.00451
1.03348
1.00714
1.03589
1.00305
1.03629
0.998453
1.03395
1.008
1.03172
1.01025
1.04171
1.01246
1.03867
1.01717
1.0353
1.01643
1.03568
1.01364
1.04364
1.00784
1.03994
1.0116
1.04262
1.01507
1.04958
1.01973
1.05672
1.02561
1.0464
1.02414
1.05229
1.01107
1.0542
1.01456
1.05407
1.00123
1.05422
0.987709
1.09623
0.758178
2.40851
0.964368
1.01827
0.979001
1.00933
0.991189
1.02797
0.999277
1.02796
1.00026
1.03226
0.996323
1.03487
1.00556
1.0291
1.00954
1.03115
1.01069
1.04063
1.00577
1.03612
1.01379
1.03947
1.00946
1.03982
1.0083
1.03592
1.01035
1.03334
1.00751
1.03828
1.00355
1.04247
1.00952
1.0552
1.01994
1.05314
1.02798
1.04589
1.02295
1.05587
1.00926
1.05516
1.004
1.05691
0.996828
1.04841
0.987844
1.09236
0.763431
2.40363
1.02309
0.968842
0.9974
0.965507
1.03332
0.997855
1.03419
1.00576
1.03148
1.00267
1.0346
1.00046
1.03428
1.00247
1.0389
1.01133
1.0289
1.00679
1.03576
1.0128
1.04121
1.02119
1.03714
1.01651
1.03736
1.01563
1.03493
1.01321
1.03552
1.0084
1.04285
1.01108
1.0452
1.01398
1.04943
1.02761
1.05146
1.0291
1.04583
1.02073
1.05769
1.01376
1.0521
1.01436
1.0526
0.994298
1.05421
0.989014
1.08873
0.766333
2.39865
0.978614
1.01416
0.987313
1.00874
0.991485
1.0248
0.997794
1.02747
1.00078
1.03071
0.998893
1.03195
1.00211
1.03443
1.00835
1.03101
1.01302
1.03293
1.0184
1.03525
1.00475
1.03644
1.0164
1.03857
1.01014
1.03879
1.00795
1.03715
1.01013
1.0351
1.0098
1.03963
1.00351
1.03954
1.02346
1.0495
1.02243
1.04947
1.026
1.04738
1.01817
1.06057
1.01354
1.05367
1.00532
1.05179
0.996865
1.05441
0.99419
1.08573
0.771751
2.39309
1.01364
0.976059
0.996577
0.965169
1.0322
0.994514
1.03297
1.00556
1.03228
0.998634
1.0302
1.00338
1.04012
1.00521
1.03377
1.0056
1.03697
1.0162
1.03087
1.01456
1.03543
1.00985
1.03895
1.01114
1.04156
1.01834
1.03833
1.01729
1.03626
1.01596
1.03395
1.01004
1.04307
1.01074
1.04994
1.01927
1.05224
1.03263
1.04813
1.0232
1.05101
1.01772
1.06146
1.0185
1.05022
1.01216
1.05214
0.989202
1.05351
0.993093
1.08332
0.773414
2.38834
0.976507
1.00958
0.986316
1.00463
0.988858
1.02234
0.999051
1.0279
1.00162
1.02754
1.0088
1.03135
0.998859
1.03003
1.00441
1.03498
1.01281
1.03142
1.01261
1.03263
1.01423
1.03905
1.00932
1.03624
1.01168
1.04056
1.00913
1.03739
1.00797
1.03517
1.00981
1.03473
1.0078
1.04129
1.00682
1.04016
1.02163
1.04741
1.02636
1.04688
1.02137
1.05461
1.01732
1.0598
1.01323
1.04913
1.00644
1.05981
0.99608
1.05482
0.996374
1.08117
0.778957
2.38299
1.01236
0.984308
0.993488
0.963458
1.03219
0.994806
1.03239
1.00533
1.03188
1.00025
1.03125
1.0042
1.03252
1.00601
1.03602
1.00499
1.03166
1.00847
1.03321
1.01001
1.03212
1.00672
1.03541
1.01696
1.03787
1.00999
1.04104
1.02043
1.03797
1.017
1.03755
1.01733
1.03376
1.00796
1.04173
1.01536
1.04715
1.02645
1.04917
1.02533
1.0479
1.01955
1.05739
1.01754
1.05932
1.01738
1.04902
1.00686
1.05765
0.990556
1.05205
0.995591
1.07971
0.780728
2.3778
0.989568
1.00446
0.973425
1.00507
0.987396
1.02128
0.999116
1.02536
1.00085
1.02476
1.00229
1.0282
1.00016
1.03349
1.00415
1.03377
1.00583
1.03294
1.00943
1.02961
1.01174
1.03562
1.01483
1.0325
1.01623
1.03733
1.01456
1.0409
1.01038
1.03569
1.00802
1.03546
1.01104
1.04018
1.0075
1.0417
1.01281
1.04115
1.02142
1.04756
1.02666
1.05147
1.0194
1.06097
1.01536
1.05908
1.01361
1.04743
1.00526
1.0618
0.997346
1.05399
0.995798
1.07812
0.786239
2.37199
0.996408
0.984085
0.995266
0.96548
1.02577
0.993489
1.02959
1.00591
1.03211
0.999097
1.03274
1.0028
1.03061
1.00321
1.03365
1.00544
1.03416
1.0067
1.02997
1.00771
1.03144
1.00651
1.03253
1.01327
1.02898
1.01795
1.04115
1.00955
1.03992
1.01722
1.03689
1.01782
1.03487
1.01231
1.03395
1.01076
1.04369
1.01428
1.04781
1.01715
1.05179
1.02019
1.05235
1.01964
1.06288
1.0145
1.05987
1.01412
1.04784
1.0058
1.05569
0.989404
1.05333
0.995809
1.0767
0.787604
2.36634
0.977316
1.00554
0.971325
1.00418
0.986899
1.02268
1.00026
1.02068
1.00319
1.0215
1.00062
1.02897
1.00014
1.03016
0.998277
1.0313
1.00478
1.02776
1.0037
1.03298
1.00582
1.03284
1.01162
1.03531
1.01739
1.02628
1.01629
1.03693
1.01006
1.03859
1.00782
1.03775
1.0072
1.03603
1.00834
1.03765
1.00961
1.04228
1.01031
1.04298
1.02177
1.05172
1.02619
1.05139
1.0205
1.06153
1.0133
1.05994
1.01165
1.0494
1.007
1.06102
0.999319
1.05146
0.99556
1.07582
0.79332
2.36115
1.01322
0.983116
0.993579
0.967814
1.02696
0.995215
1.02724
1.00468
1.03115
0.997132
1.03026
1.00473
1.03645
1.00226
1.03189
1.00435
1.03237
1.00364
1.03119
1.00245
1.03138
1.00627
1.02942
1.00348
1.03297
1.01859
1.03416
1.01532
1.04216
1.01202
1.03985
1.01805
1.03751
1.0142
1.03479
1.01438
1.03465
1.01246
1.0442
1.01724
1.04608
1.01475
1.05391
1.022
1.05851
1.01976
1.06403
1.0125
1.05774
1.01574
1.04965
1.00299
1.0584
0.996867
1.05562
0.994257
1.07818
0.777678
2.35581
0.976855
1.00778
0.97345
1.00341
0.985352
1.0205
0.998163
1.01724
1.00347
1.01733
1.00347
1.02235
0.998815
1.02908
0.998883
1.03112
1.00046
1.03142
1.00446
1.02844
1.00288
1.03215
1.00406
1.02992
1.01246
1.0308
1.01738
1.02858
1.01447
1.03757
1.01207
1.04029
1.01078
1.03767
1.00648
1.03565
1.00782
1.0361
1.01207
1.04616
1.01812
1.04309
1.02505
1.05176
1.02111
1.05779
1.01833
1.06294
1.0121
1.05812
1.01671
1.05006
1.00993
1.05672
1.00053
1.05057
0.99098
1.08943
0.781941
2.35084
1.00318
0.983495
0.991664
0.966456
1.02565
0.994317
1.02642
1.00223
1.03272
0.996888
1.02928
1.00065
1.03355
1.00459
1.03327
1.00042
1.03073
1.00248
1.03492
1.00202
1.03435
1.00383
1.0315
1.00405
1.03316
1.00977
1.02937
1.01396
1.0332
1.01286
1.0389
1.02155
1.03724
1.02189
1.03706
1.02072
1.03812
1.0219
1.03148
1.01183
1.04696
1.01743
1.04617
1.01861
1.05442
1.02234
1.05828
1.01811
1.06355
1.01807
1.05593
1.0213
1.05334
1.01154
1.05572
1.00139
1.05167
0.988422
1.08689
0.786488
2.34511
0.985603
1.00835
0.976828
1.00378
0.984758
1.01769
0.997869
1.01618
1.00065
1.0154
1.00161
1.02029
1.00486
1.02705
0.997274
1.03208
1.00295
1.03134
0.998726
1.0369
1.00664
1.02947
1.00335
1.03565
1.00289
1.03081
1.00844
1.03443
1.01571
1.02874
1.015
1.04002
1.01261
1.03531
1.01219
1.03566
1.00723
1.03518
1.00906
1.03687
1.01456
1.04424
1.01606
1.04649
1.02069
1.05365
1.02665
1.05944
1.01719
1.0631
1.02148
1.0538
1.02223
1.05221
1.01217
1.05447
1.0002
1.05173
0.989669
1.0842
0.790393
2.34
1.00344
0.97714
0.994113
0.965535
1.02274
0.992336
1.02583
1.00119
1.03044
0.99687
1.03105
0.999936
1.03455
1.0014
1.03412
1.00498
1.03686
1.00743
1.03154
1.00038
1.03652
1.00744
1.03446
1.00461
1.03523
1.0075
1.0327
1.00646
1.0327
1.0123
1.03389
1.01647
1.03565
1.02575
1.03362
1.02559
1.03373
1.01813
1.03482
1.0173
1.03334
1.0162
1.04577
1.02247
1.04927
1.01998
1.05306
1.02833
1.06228
1.01662
1.06181
1.02588
1.05122
1.02417
1.05161
1.01186
1.05285
0.998141
1.05271
0.992304
1.08233
0.794517
2.335
0.9885
1.01108
0.974984
1.00359
0.983828
1.01661
1.00044
1.01699
1.00244
1.01216
1.00275
1.02402
0.998934
1.0164
0.998686
1.03017
0.996486
1.02874
1.00252
1.0344
1.00315
1.03472
1.00627
1.03224
1.00636
1.03675
1.00493
1.03072
1.00788
1.03629
1.01507
1.03163
1.01192
1.03878
1.01704
1.03464
1.01448
1.0383
1.00988
1.03454
1.00984
1.03752
1.01598
1.04447
1.01823
1.04601
1.02537
1.05242
1.02826
1.05869
1.02068
1.05999
1.0298
1.0488
1.02197
1.05121
1.01102
1.05489
0.996958
1.04964
0.991025
1.08449
0.781345
2.33015
1.00536
0.970545
0.993561
0.965332
1.01776
0.98998
1.02613
0.999673
1.02692
1.00026
1.02966
0.997214
1.03083
0.998539
1.0352
0.998263
1.03497
1.0046
1.03436
1.00169
1.03441
1.00438
1.03518
1.01081
1.03351
1.00726
1.03537
1.00758
1.03665
1.0026
1.03567
1.01122
1.0346
1.01513
1.03682
1.02613
1.03277
1.02302
1.03398
1.01493
1.03581
1.01894
1.03333
1.01559
1.04566
1.01859
1.05219
1.02413
1.0513
1.02434
1.06223
1.02654
1.05793
1.03228
1.04713
1.02295
1.04849
1.00777
1.05575
0.996194
1.05336
0.993662
1.09433
0.783149
2.32562
0.987809
1.01687
0.974437
1.00391
0.987431
1.01696
1.00164
1.01825
1.00565
1.01191
0.998324
1.02073
1.00727
1.02478
1.00021
1.02086
0.995325
1.02835
1.00783
1.02947
1.00074
1.03411
1.00693
1.03282
1.00785
1.03206
1.00974
1.0351
1.0061
1.03313
1.0083
1.03571
1.01218
1.0332
1.01509
1.03936
1.018
1.03601
1.01466
1.0365
1.00826
1.03618
1.0124
1.03699
1.01712
1.04411
1.01928
1.04597
1.02625
1.05086
1.02581
1.0606
1.03044
1.056
1.03243
1.04606
1.01965
1.05201
1.00927
1.05559
0.997867
1.04864
0.986352
1.09134
0.789304
2.32065
1.00572
0.97281
0.991003
0.968348
1.01244
0.987934
1.02529
0.999578
1.02654
0.998184
1.02384
0.995302
1.01668
1.00137
1.02214
1.0028
1.03631
0.999454
1.02883
1.00973
1.03381
1.00564
1.03432
1.00969
1.03509
1.01059
1.03581
1.00845
1.03413
1.00607
1.03903
1.00467
1.03602
1.00981
1.03715
1.01923
1.037
1.02323
1.03354
1.02337
1.03545
1.01709
1.03646
1.01893
1.0327
1.01491
1.04187
1.02265
1.05343
1.0265
1.05092
1.02806
1.06121
1.03009
1.0541
1.03198
1.04602
1.01863
1.05061
1.00694
1.05697
0.996635
1.05298
0.990124
1.08847
0.790532
2.31575
0.988399
1.01442
0.975266
0.999432
0.986091
1.01539
1.0014
1.01794
1.00567
1.0129
0.994803
1.01753
1.00989
1.01287
1.00775
1.0206
0.995528
1.02093
1.00403
1.02716
1.00737
1.02868
1.00816
1.03276
1.01091
1.03296
1.00659
1.03236
1.01175
1.03299
1.00799
1.03493
1.01303
1.03474
1.0118
1.03495
1.0172
1.03591
1.02206
1.03472
1.01348
1.03746
1.00822
1.03547
1.00845
1.03466
1.01625
1.03953
1.01976
1.04676
1.02852
1.05267
1.02894
1.05875
1.03481
1.05261
1.03128
1.04458
1.01591
1.05448
1.00768
1.05877
0.996423
1.04925
0.990154
1.0852
0.796418
2.31007
1.00635
0.977261
0.987911
0.964091
1.00982
0.986513
1.02638
1.00034
1.02558
0.995555
1.023
1.00549
1.02199
0.99712
1.02084
1.00333
1.02549
1.00116
1.0341
1.00659
1.0267
1.01314
1.03163
1.01008
1.03185
1.01287
1.03436
1.01079
1.03416
1.01075
1.03205
1.00729
1.04059
1.00645
1.03654
1.01293
1.03675
1.02055
1.03528
1.02404
1.03313
1.02518
1.03633
1.01823
1.03595
1.0183
1.03345
1.01767
1.04487
1.0261
1.04874
1.02832
1.05278
1.03239
1.05998
1.03324
1.0517
1.02971
1.04515
1.01669
1.05663
1.00241
1.05917
0.999934
1.05335
0.991269
1.08191
0.797183
2.30444
0.989424
1.01217
0.977667
0.999437
0.984844
1.01506
1.00206
1.01602
1.00511
1.01531
0.994334
1.01424
0.993653
1.01814
1.0013
1.0146
1.00033
1.02377
1.00011
1.02119
1.0072
1.02562
1.00822
1.02804
1.00662
1.03159
1.01096
1.03239
1.009
1.03187
1.01377
1.03074
1.00965
1.03645
1.01391
1.03554
1.01055
1.03593
1.02011
1.03478
1.02383
1.03261
1.0114
1.03765
1.0097
1.03664
1.00719
1.0362
1.01766
1.03975
1.02452
1.04668
1.03151
1.05125
1.03079
1.05649
1.03336
1.05104
1.02762
1.0462
1.01313
1.05962
1.00572
1.06005
0.996613
1.05166
0.994006
1.07995
0.804344
2.29896
1.00531
0.982691
0.986212
0.959668
1.0089
0.986924
1.02769
0.999689
1.02649
0.99564
1.02442
1.01024
1.02236
0.999393
1.02687
1.00763
1.02403
1.00528
1.02507
1.00609
1.02909
1.0074
1.02415
1.01371
1.03151
1.00869
1.03022
1.01115
1.03437
1.01166
1.03292
1.00904
1.03017
1.00975
1.0381
1.0119
1.03768
1.01359
1.03744
1.02349
1.03362
1.02455
1.0306
1.0258
1.03666
1.01741
1.03528
1.01904
1.03423
1.02002
1.04449
1.02449
1.04567
1.03674
1.04986
1.03152
1.05662
1.03312
1.05204
1.0256
1.04818
1.01453
1.05947
1.00175
1.0612
1.00076
1.05099
0.995666
1.08208
0.787893
2.29456
0.987748
1.00676
0.980108
0.998194
0.98294
1.0133
1.00286
1.01375
1.0056
1.0171
1.00158
1.01852
0.986554
1.01872
0.99967
1.01781
1.00002
1.01861
1.00424
1.0226
1.00674
1.02096
1.01014
1.02367
1.00872
1.0299
1.00872
1.02983
1.00983
1.03334
1.0129
1.03149
1.01611
1.03012
1.01346
1.03636
1.0129
1.03973
1.01576
1.03551
1.02271
1.03188
1.0213
1.03315
1.01312
1.03867
1.00919
1.03661
1.01093
1.03769
1.01883
1.03929
1.02555
1.04521
1.03104
1.05073
1.03319
1.05462
1.03293
1.05452
1.0247
1.04689
1.01431
1.06281
1.0069
1.06051
1.00046
1.05069
0.993996
1.0917
0.793537
2.28938
1.00263
0.986238
0.983982
0.957181
1.00976
0.989136
1.02878
0.999911
1.02863
0.995653
1.02595
1.00414
1.02153
1.00817
1.0224
1.00104
1.02039
1.01209
1.02343
1.00624
1.02285
1.01016
1.0275
1.00847
1.02436
1.0109
1.03044
1.01281
1.0293
1.0106
1.03276
1.01217
1.02992
1.01252
1.02949
1.00895
1.03477
1.01511
1.03604
1.01508
1.03727
1.02673
1.03063
1.02171
1.0299
1.02037
1.03613
1.02258
1.0378
1.01583
1.03581
1.01877
1.04392
1.02796
1.04605
1.03133
1.05187
1.03274
1.0527
1.03118
1.05301
1.02275
1.04778
1.01753
1.06172
1.00367
1.05925
0.997506
1.05031
0.993242
1.08932
0.796241
2.28417
0.98384
1.0056
0.975634
0.995636
0.982613
1.01468
1.00549
1.01268
1.00616
1.01617
1.0035
1.01954
0.997063
1.0233
0.993679
1.02075
1.00293
1.01842
1.0035
1.01776
1.00979
1.02128
1.00864
1.01916
1.00614
1.02432
1.00965
1.02986
1.01014
1.03022
1.01364
1.03192
1.01757
1.02968
1.01496
1.03116
1.01631
1.03419
1.01195
1.03862
1.01339
1.03769
1.02142
1.0305
1.02076
1.03359
1.01502
1.03401
1.01379
1.03551
1.01363
1.03714
1.01863
1.03805
1.02602
1.0437
1.03084
1.05189
1.03097
1.05383
1.03138
1.05344
1.02098
1.04952
1.01377
1.0639
1.00809
1.0588
0.998018
1.0495
0.991939
1.08671
0.801934
2.27951
1.0001
0.988032
0.985431
0.964967
1.00781
0.991106
1.02845
1.00008
1.03027
0.995309
1.0265
1.00292
1.02399
0.996591
1.01758
1.01207
1.01708
1.01386
1.01995
1.01271
1.02293
1.00957
1.0187
1.0119
1.02789
1.00714
1.02324
1.01391
1.02924
1.01263
1.02879
1.01192
1.03101
1.01525
1.02999
1.01139
1.03371
1.01301
1.03366
1.01413
1.03829
1.01513
1.03658
1.02136
1.03006
1.01956
1.03357
1.02473
1.03103
1.02174
1.03626
1.01723
1.0357
1.01866
1.04465
1.02544
1.04523
1.0291
1.05419
1.02939
1.0533
1.03005
1.05396
1.01931
1.04997
1.01605
1.0607
1.00883
1.05612
1.00297
1.04926
0.996259
1.08389
0.803683
2.27457
0.98326
1.00307
0.967156
0.994612
0.981158
1.01297
1.00531
1.01117
1.00569
1.01615
1.00628
1.0234
0.996847
1.02026
1.00729
1.01675
1.00729
1.01723
1.00534
1.01946
1.00337
1.0206
1.00892
1.0171
1.00886
1.0218
1.01143
1.02263
1.01201
1.02924
1.01104
1.029
1.01567
1.03032
1.01509
1.03145
1.01332
1.03351
1.01416
1.03396
1.01355
1.0391
1.01443
1.03398
1.02121
1.03157
1.01822
1.03778
1.01995
1.03776
1.01581
1.03676
1.01104
1.03705
1.01833
1.03903
1.02451
1.0448
1.03128
1.05424
1.02871
1.05264
1.029
1.05464
1.01779
1.05171
1.02089
1.05911
1.01255
1.05497
1.00028
1.0471
0.99843
1.08106
0.809889
2.26933
0.997876
0.987044
0.984937
0.967361
1.00398
0.993452
1.02787
1.00119
1.03217
0.998146
1.02367
0.998452
1.01997
1.01627
1.02243
1.0167
1.02006
1.00867
1.02038
1.00979
1.02171
1.01097
1.02386
1.01326
1.01883
1.00637
1.02242
1.01165
1.02295
1.0129
1.02763
1.01405
1.02775
1.01591
1.02997
1.01158
1.0327
1.01196
1.03528
1.01291
1.03432
1.01327
1.03795
1.01761
1.03759
1.01963
1.03354
1.01932
1.03409
1.02178
1.03203
1.02279
1.03577
1.01527
1.03686
1.01858
1.0449
1.02216
1.04665
1.02745
1.05702
1.0283
1.05481
1.02803
1.05379
1.01614
1.05248
1.02064
1.05889
1.01331
1.05312
1.00676
1.04558
0.997834
1.07864
0.81079
2.26394
0.981465
1.00251
0.963388
0.99303
0.97222
1.01278
1.00638
1.01199
1.00672
1.01473
1.00701
1.02185
1.01694
1.01999
1.00748
1.01977
1.00487
1.0192
1.00935
1.01942
1.00729
1.02218
1.00663
1.02099
1.01058
1.01926
1.01235
1.0217
1.00966
1.02179
1.01231
1.0278
1.01195
1.0282
1.01382
1.02918
1.01573
1.03165
1.01417
1.0366
1.01225
1.03494
1.01244
1.03942
1.01435
1.03544
1.01869
1.03604
1.01647
1.03687
1.02133
1.03569
1.01546
1.03429
1.01169
1.03688
1.01721
1.03837
1.02195
1.04851
1.02682
1.05699
1.02765
1.05474
1.02695
1.054
1.0142
1.05223
1.01998
1.05807
1.01633
1.0523
1.00103
1.0437
1.00087
1.07635
0.816468
2.25893
0.99679
0.983763
0.987257
0.96574
1.00464
0.99634
1.02751
1.00173
1.03168
0.997578
1.02458
1.00201
1.02015
1.00381
1.01795
1.01551
1.02064
1.016
1.0203
1.008
1.0185
1.00973
1.02047
1.01056
1.02395
1.00684
1.02097
1.00914
1.02244
1.01321
1.02185
1.01469
1.02688
1.01382
1.02627
1.01591
1.02824
1.01514
1.02995
1.01528
1.03504
1.01119
1.03436
1.01353
1.03532
1.0165
1.03824
1.01812
1.03767
1.01701
1.03351
1.02073
1.03515
1.02694
1.03535
1.01792
1.03835
1.01983
1.04315
1.02289
1.04606
1.02541
1.05694
1.02648
1.05534
1.02577
1.05463
1.01263
1.05282
1.02523
1.05706
1.0166
1.05104
1.00455
1.04352
0.997244
1.07438
0.817475
2.25339
0.981716
0.997155
0.956118
0.992852
0.975165
1.01493
1.00681
1.01313
1.00841
1.01409
1.01083
1.01905
1.01257
1.02071
1.01295
1.01541
1.00773
1.01792
1.00819
1.01763
1.01051
1.01613
1.01002
1.02026
1.00712
1.02086
1.01255
1.02046
1.01177
1.02221
1.01255
1.01991
1.01342
1.02659
1.01261
1.02751
1.01448
1.02747
1.01691
1.02958
1.01525
1.03686
1.01161
1.03518
1.01297
1.04131
1.0112
1.03666
1.01778
1.03841
1.01629
1.03853
1.0174
1.03611
1.01399
1.03493
1.01168
1.03877
1.01629
1.03789
1.02072
1.04903
1.02796
1.0566
1.02649
1.05498
1.02478
1.05638
1.0103
1.05205
1.02201
1.05472
1.01923
1.04857
1.00294
1.04439
0.999717
1.07261
0.821984
2.24784
0.997367
0.983067
0.996057
0.970055
1.00182
0.997064
1.02686
1.00249
1.02992
0.997806
1.02657
1.00393
1.0239
1.00594
1.02132
1.00793
1.01763
1.01659
1.0195
1.01569
1.02054
1.0123
1.01969
1.01218
1.0182
1.00997
1.02394
1.00923
1.01876
1.01158
1.02183
1.01378
1.02034
1.01487
1.02629
1.01187
1.02689
1.01766
1.02725
1.0177
1.02887
1.01667
1.03302
1.00969
1.03426
1.0124
1.03644
1.01683
1.0386
1.01702
1.03889
1.01505
1.03415
1.02617
1.03466
1.02546
1.03371
1.01768
1.03967
1.0189
1.04353
1.02232
1.04975
1.02633
1.05819
1.025
1.05649
1.02288
1.05834
1.01242
1.05234
1.02614
1.05271
1.0186
1.04919
1.00118
1.04537
0.99785
1.07127
0.824955
2.24255
0.979832
0.994866
0.954361
0.990074
0.973269
1.01399
1.00542
1.01455
1.00943
1.01292
1.01349
1.01759
1.01048
1.01639
1.00794
1.02017
1.01074
1.01854
1.01172
1.01668
1.00871
1.01638
1.01204
1.01804
1.01016
1.02131
1.00782
1.02101
1.01103
1.01719
1.01308
1.02122
1.01195
1.02055
1.01368
1.02644
1.01115
1.02693
1.01375
1.02628
1.01857
1.02738
1.01566
1.03659
1.01003
1.03796
1.01192
1.04178
1.01338
1.03677
1.01739
1.03996
1.01771
1.0373
1.01478
1.03267
1.01739
1.03478
1.01356
1.03858
1.01958
1.03863
1.01958
1.05198
1.02563
1.0558
1.02516
1.05363
1.02087
1.06162
1.01179
1.05402
1.02713
1.05125
1.01849
1.04867
0.999157
1.04791
0.997971
1.06992
0.829464
2.23679
0.996333
0.976782
1.00056
0.968126
1.00283
0.997662
1.02726
1.00307
1.02947
0.998329
1.02582
1.00245
1.02536
1.00126
1.02374
1.00117
1.01757
1.01694
1.01722
1.01986
1.01985
1.01582
1.01749
1.01318
1.02075
1.01177
1.01978
1.00954
1.02244
1.01023
1.02016
1.01221
1.02115
1.01336
1.01965
1.01504
1.02567
1.01366
1.02765
1.01681
1.0249
1.01984
1.02661
1.01451
1.03432
1.00675
1.03542
1.01098
1.03734
1.01646
1.03884
1.01868
1.0382
1.01724
1.03485
1.02814
1.02992
1.02355
1.03471
1.02115
1.03993
1.02247
1.04256
1.01905
1.05117
1.02502
1.05625
1.02512
1.05516
1.01894
1.06337
1.01702
1.05447
1.027
1.05057
1.01644
1.04854
0.996948
1.04874
0.997306
1.06857
0.830635
2.23075
0.977921
0.993927
0.962833
0.98998
0.970635
1.01464
1.00451
1.01544
1.01101
1.01234
1.0151
1.01646
1.00789
1.01834
1.01251
1.01818
1.01141
1.01722
1.01488
1.01669
1.01162
1.01821
1.01043
1.01912
1.01092
1.01785
1.00934
1.02254
1.00731
1.02089
1.01191
1.0164
1.01127
1.02065
1.01267
1.01998
1.01267
1.02491
1.01077
1.02693
1.01609
1.0241
1.01899
1.02728
1.01316
1.0384
1.01105
1.0386
1.01095
1.03977
1.01195
1.03809
1.01897
1.039
1.0164
1.03771
1.01991
1.03747
1.01875
1.03517
1.01417
1.03694
1.01673
1.03726
1.01893
1.05592
1.02516
1.05626
1.0261
1.05755
1.01666
1.06086
1.02052
1.05507
1.02499
1.04975
1.01672
1.04916
0.994637
1.04864
0.999885
1.06743
0.836404
2.22545
0.996154
0.968198
0.997917
0.967786
0.992484
0.997654
1.02605
1.00447
1.02897
0.998968
1.02635
1.00077
1.02434
1.00646
1.0188
1.00066
1.01967
1.01195
1.01772
1.01718
1.01576
1.01745
1.01924
1.01598
1.01745
1.01496
1.01879
1.01202
1.02197
1.0074
1.02408
1.01168
1.02033
1.01062
1.02033
1.01304
1.01947
1.01542
1.02379
1.01295
1.02614
1.01794
1.02395