/*--------------------------------*- C++ -*----------------------------------*\
| =========                 |                                                 |
| \\      /  F ield         | OpenFOAM: The Open Source CFD Toolbox           |
|  \\    /   O peration     | Version:  2206                                  |
|   \\  /    A nd           | Website:  www.openfoam.com                      |
|    \\/     M anipulation  |                                                 |
\*---------------------------------------------------------------------------*/
FoamFile
{
    version     2.0;
    format      ascii;
    arch        "LSB;label=32;scalar=64";
    class       volScalarField;
    location    "210";
    object      rhoMean;
}
// * * * * * * * * * * * * * * * * * * * * * * * * * * * * * * * * * * * * * //

dimensions      [1 -3 0 0 0 0 0];

internalField   nonuniform List<scalar> 
93840
(
2.46454
0.539081
2.42933
1.36749
0.571195
2.24727
0.656204
1.13812
0.654707
1.95197
1.16098
0.934786
1.15454
0.773471
1.78763
0.980286
1.0765
0.916583
1.23645
0.828555
1.68862
1.07111
0.953368
1.10651
0.815228
1.14178
0.828177
1.69352
0.972065
1.07156
0.956046
1.11902
0.864148
1.15367
0.861291
1.685
1.07218
0.954985
1.09143
0.982228
1.09105
0.903524
1.0871
0.85716
1.69383
0.977842
1.07209
0.954809
1.06468
0.968347
1.06813
0.960395
1.06739
0.857618
1.6802
1.07236
0.971646
1.08864
0.984305
1.0659
0.98167
1.03285
0.98083
1.0628
0.85992
1.69503
0.97889
1.07147
0.966857
1.06995
0.978505
1.04874
0.970942
1.04284
0.980969
1.04999
0.860449
1.68394
1.06706
0.972695
1.08516
0.997287
1.06535
0.993854
1.04509
0.992524
1.02653
0.985294
1.05029
0.86122
1.69271
0.976937
1.06611
0.971337
1.06748
0.989167
1.05041
0.986138
1.04436
0.984497
1.03616
0.981876
1.04703
0.861793
1.68028
1.06598
0.971715
1.07808
0.997623
1.05934
0.999411
1.04793
0.997851
1.03892
0.996331
1.02413
0.984042
1.04678
0.863082
1.69026
0.978233
1.06392
0.972977
1.06049
0.989866
1.04752
0.99019
1.0429
0.994076
1.04112
0.984919
1.03321
0.983043
1.04387
0.863412
1.67618
1.0665
0.973724
1.0743
0.997888
1.05501
1.00122
1.04632
0.999519
1.04357
0.999879
1.03687
0.996132
1.02348
0.983566
1.04528
0.865434
1.68627
0.980178
1.06316
0.977071
1.05782
0.9932
1.04584
0.993132
1.04073
0.993794
1.0397
0.995
1.03891
0.986376
1.03108
0.983753
1.042
0.865503
1.67176
1.06705
0.975997
1.07156
1.00015
1.05451
1.00447
1.047
1.00195
1.04344
1.00032
1.04114
1.00073
1.03443
0.996463
1.02342
0.983996
1.04385
0.867726
1.68209
0.981846
1.06338
0.980648
1.0557
0.996619
1.04472
0.997753
1.04158
0.995086
1.03841
0.994922
1.0381
0.995662
1.03784
0.986957
1.02914
0.98461
1.04075
0.867673
1.66757
1.06768
0.979277
1.06942
1.00208
1.05279
1.00584
1.047
1.0047
1.04497
1.00219
1.04191
1.001
1.0394
1.00182
1.03277
0.99687
1.02297
0.984196
1.04259
0.870137
1.6773
0.984202
1.06358
0.984059
1.05457
0.999922
1.04406
1.00214
1.04165
0.998978
1.04026
0.996548
1.03687
0.995908
1.03613
0.99592
1.03735
0.988573
1.02748
0.985592
1.03962
0.869987
1.66362
1.06886
0.983605
1.06839
1.00502
1.05284
1.00871
1.04807
1.00666
1.0454
1.00428
1.04371
1.0033
1.04076
1.00107
1.03785
1.00174
1.03159
0.996971
1.02327
0.984717
1.04151
0.872843
1.67206
0.986844
1.06432
0.988273
1.05497
1.0036
1.04481
1.00672
1.04214
1.0035
1.04091
0.999788
1.03787
0.998777
1.03527
0.997101
1.03562
0.997482
1.03628
0.989667
1.02603
0.986264
1.03861
0.87247
1.65996
1.06879
0.986896
1.06783
1.00874
1.0535
1.01174
1.04928
1.00988
1.04673
1.00668
1.04235
1.00676
1.04165
1.00354
1.03927
1.00088
1.03558
1.00204
1.03111
0.997372
1.02282
0.985253
1.04082
0.874384
1.65866
0.987525
1.06268
0.991261
1.05469
1.00675
1.04529
1.01049
1.04289
1.0082
1.04117
1.00502
1.03872
1.0023
1.03749
0.999887
1.03475
0.998237
1.0351
0.998768
1.03484
0.990995
1.02521
0.986554
1.03777
0.872586
1.65251
1.06653
0.987873
1.06461
1.0104
1.05236
1.01298
1.04879
1.01209
1.04768
1.01006
1.0452
1.00937
1.04176
1.00652
1.03951
1.00485
1.03815
1.00188
1.03404
1.00176
1.03098
0.997422
1.02285
0.985237
1.03973
0.880325
1.65495
0.987384
1.05908
0.992268
1.05203
1.00729
1.04312
1.01139
1.04157
1.01115
1.0421
1.00929
1.04034
1.00616
1.03835
1.00294
1.0367
1.00093
1.03404
0.998935
1.03419
0.99985
1.03383
0.991957
1.02482
0.986772
1.03587
0.87934
1.65156
1.06373
0.988506
1.06064
1.01016
1.04979
1.01241
1.0468
1.01283
1.04679
1.01187
1.04597
1.01177
1.04463
1.0094
1.04028
1.00811
1.03893
1.00486
1.03756
1.00233
1.0332
1.00207
1.03111
0.99653
1.02297
0.984945
1.03845
0.880963
1.65241
0.986967
1.0551
0.992398
1.04816
1.00683
1.04068
1.01187
1.03965
1.01173
1.04054
1.01174
1.04097
1.01042
1.03979
1.00671
1.0375
1.00373
1.03632
1.00165
1.03357
0.999585
1.03334
1.00004
1.03397
0.992301
1.02478
0.987019
1.03675
0.880826
1.64767
1.06078
0.98789
1.0561
1.00943
1.04715
1.01173
1.0446
1.01238
1.04429
1.01247
1.04592
1.01301
1.04496
1.01179
1.04388
1.01011
1.04007
1.00789
1.03813
1.00461
1.03639
1.0025
1.03244
1.00164
1.031
0.995886
1.02303
0.9846
1.03888
0.88194
1.64779
0.986987
1.05092
0.991675
1.04398
1.00621
1.03764
1.01098
1.03663
1.01162
1.03894
1.01208
1.03986
1.01229
1.04073
1.01121
1.0392
1.00753
1.03719
1.00446
1.03571
1.00251
1.03296
1.00045
1.03313
0.999728
1.03333
0.993235
1.02455
0.986775
1.03766
0.882887
1.64267
1.05866
0.988202
1.05122
1.00742
1.04414
1.0102
1.0414
1.01117
1.04191
1.01227
1.04357
1.01226
1.04477
1.01324
1.04417
1.01201
1.04281
1.01072
1.0392
1.00821
1.03741
1.00553
1.03524
1.00262
1.03202
1.00198
1.03085
0.995515
1.02311
0.983543
1.03917
0.885104
1.64233
0.987623
1.04702
0.992283
1.04065
1.00551
1.03447
1.0099
1.03404
1.01076
1.03613
1.01149
1.03836
1.01246
1.0393
1.01292
1.04008
1.01253
1.03885
1.00821
1.03669
1.00538
1.03494
1.00326
1.03236
1.00079
1.03275
0.999907
1.03327
0.993721
1.02482
0.98612
1.03773
0.886135
1.638
1.05611
0.98903
1.04786
1.00677
1.04186
1.0092
1.03891
1.01056
1.03915
1.01093
1.04109
1.01229
1.04244
1.01295
1.04316
1.01365
1.0433
1.01272
1.04152
1.01157
1.03833
1.00871
1.03654
1.00602
1.0342
1.00312
1.03157
1.00179
1.03073
0.995509
1.02366
0.983161
1.04099
0.876888
1.63792
0.988531
1.04396
0.993345
1.03748
1.00492
1.03199
1.00946
1.032
1.00985
1.03394
1.01076
1.03566
1.01218
1.03764
1.01389
1.03886
1.01409
1.03925
1.01322
1.03846
1.00915
1.03643
1.006
1.03466
1.00411
1.03196
1.00102
1.03212
1.00005
1.03283
0.993965
1.02536
0.984653
1.04909
0.877969
1.63322
1.05441
0.990664
1.04524
1.00647
1.03998
1.00883
1.03772
1.01113
1.03749
1.01046
1.03838
1.01121
1.04004
1.01269
1.04123
1.01325
1.04257
1.0141
1.0427
1.01347
1.04067
1.01158
1.03758
1.00873
1.03573
1.00654
1.03351
1.00305
1.03136
1.00188
1.03071
0.995503
1.02423
0.978613
1.04809
0.882944
1.6328
0.990514
1.04293
0.995171
1.03529
1.0055
1.03114
1.01066
1.03222
1.01104
1.03297
1.01017
1.03304
1.01151
1.03517
1.01281
1.03683
1.01476
1.03823
1.01482
1.03882
1.0138
1.03837
1.00988
1.03621
1.00699
1.03411
1.00502
1.03185
1.00181
1.03172
1.00039
1.03256
0.994144
1.0252
0.982667
1.04479
0.883413
1.62841
1.05424
0.993811
1.04457
1.00784
1.0403
1.01072
1.03938
1.01408
1.03794
1.01157
1.03572
1.01177
1.03734
1.01146
1.03872
1.01362
1.0401
1.01367
1.04169
1.01418
1.04234
1.0138
1.04053
1.01179
1.03714
1.00901
1.03506
1.00662
1.03301
1.00324
1.03081
1.00169
1.03077
0.995227
1.02482
0.980805
1.04444
0.887971
1.62836
0.994227
1.04341
0.998107
1.03574
1.0086
1.03267
1.01425
1.03431
1.01385
1.0336
1.01251
1.03189
1.01124
1.03294
1.01222
1.03444
1.01349
1.03672
1.01564
1.03806
1.01472
1.03843
1.01425
1.038
1.01072
1.03577
1.00789
1.03377
1.00548
1.03143
1.00217
1.03171
1.00038
1.0327
0.994137
1.02558
0.984478
1.04484
0.876086
1.6243
1.05531
0.998823
1.04577
1.01113
1.04284
1.01433
1.04231
1.01756
1.04051
1.01561
1.03739
1.01291
1.03616
1.01157
1.03638
1.01208
1.0381
1.01415
1.03904
1.01381
1.04069
1.01521
1.04128
1.01431
1.03969
1.01224
1.03653
1.00923
1.0347
1.00681
1.0328
1.00312
1.03057
1.00129
1.03103
0.995035
1.02559
0.981238
1.05373
0.88083
1.62403
0.99813
1.04482
1.0023
1.0379
1.01248
1.03472
1.01757
1.03543
1.01692
1.03542
1.01484
1.03335
1.0136
1.0317
1.01193
1.03216
1.01305
1.03411
1.01386
1.03637
1.01635
1.03765
1.01518
1.03827
1.01471
1.03786
1.01148
1.03529
1.00838
1.03351
1.00581
1.03144
1.00231
1.03164
1.0004
1.03266
0.994082
1.02563
0.979901
1.05051
0.882426
1.61954
1.05539
1.00283
1.04628
1.01455
1.04518
1.0169
1.04347
1.01858
1.04159
1.01901
1.04024
1.01667
1.03713
1.01243
1.03502
1.0123
1.03574
1.01227
1.03616
1.01502
1.0381
1.0143
1.03898
1.01625
1.04055
1.01473
1.03889
1.01283
1.03618
1.0094
1.03413
1.00689
1.03218
1.00328
1.03035
1.00098
1.03128
0.994904
1.02598
0.979553
1.04889
0.887157
1.61963
1.00147
1.04491
1.0062
1.03943
1.01499
1.03523
1.01856
1.03426
1.01852
1.03588
1.01757
1.03575
1.01579
1.03337
1.01437
1.03154
1.01282
1.03194
1.01383
1.03372
1.01481
1.03586
1.01702
1.03695
1.01548
1.03797
1.01527
1.03724
1.01201
1.03503
1.00879
1.03318
1.00622
1.0311
1.0024
1.03137
1.00035
1.0326
0.994246
1.02585
0.98314
1.04559
0.887941
1.6154
1.05462
1.00537
1.04639
1.01699
1.04572
1.01725
1.04249
1.01811
1.04179
1.01946
1.04074
1.01913
1.03966
1.01691
1.0369
1.01358
1.03288
1.01315
1.03321
1.01431
1.03527
1.01516
1.03737
1.0151
1.03861
1.01641
1.03975
1.01528
1.03868
1.01296
1.03574
1.00965
1.03378
1.00727
1.0319
1.00331
1.0303
1.0007
1.0315
0.994594
1.02651
0.981738
1.04446
0.891692
1.61588
1.00287
1.04423
1.00795
1.03959
1.01536
1.03368
1.01778
1.03229
1.01845
1.03427
1.01876
1.03595
1.01845
1.03602
1.01669
1.03317
1.0154
1.03139
1.01405
1.03141
1.01431
1.03328
1.01524
1.03559
1.0172
1.03667
1.0159
1.03781
1.01553
1.03707
1.01253
1.03464
1.00938
1.03278
1.00648
1.03093
1.00247
1.03127
1.00022
1.03261
0.994252
1.02626
0.984648
1.04539
0.881545
1.61156
1.05235
1.00599
1.04498
1.01699
1.04388
1.01602
1.04058
1.01713
1.04051
1.01816
1.04033
1.01987
1.03965
1.01904
1.03797
1.01814
1.03562
1.01547
1.03265
1.01468
1.0331
1.01446
1.03497
1.01536
1.03674
1.01565
1.03776
1.01705
1.03933
1.01537
1.03838
1.01312
1.03535
1.00982
1.03343
1.00728
1.03153
1.00317
1.03026
1.00051
1.03185
0.994492
1.0271
0.98236
1.05259
0.885098
1.6116
1.00365
1.04115
1.00729
1.03767
1.01385
1.03125
1.01662
1.03043
1.01773
1.03186
1.0192
1.03427
1.01943
1.03565
1.01976
1.03545
1.01779
1.0331
1.01577
1.03126
1.01423
1.03118
1.01471
1.033
1.01563
1.03518
1.01732
1.03604
1.01637
1.0375
1.01554
1.03685
1.01306
1.03446
1.00965
1.03264
1.00667
1.03068
1.00259
1.03116
1.00001
1.03271
0.994081
1.02634
0.980521
1.05
0.887237
1.607
1.0492
1.00552
1.04184
1.01572
1.04135
1.01479
1.03874
1.01632
1.03853
1.01687
1.03875
1.01804
1.0388
1.01986
1.03854
1.02029
1.03746
1.01884
1.03581
1.01607
1.03236
1.01473
1.03252
1.01468
1.03421
1.01574
1.0363
1.01612
1.03715
1.01736
1.03889
1.016
1.03779
1.01343
1.03515
1.00994
1.03324
1.00741
1.03151
1.00307
1.03028
1.00028
1.0319
0.994558
1.02735
0.980869
1.04801
0.890043
1.60728
1.00374
1.03819
1.00738
1.03555
1.01228
1.02941
1.01574
1.02906
1.01711
1.03024
1.01857
1.03193
1.01933
1.03442
1.02018
1.03557
1.02046
1.03511
1.01856
1.03285
1.01624
1.03136
1.01441
1.03084
1.01487
1.03262
1.01582
1.03494
1.0175
1.0358
1.0167
1.03713
1.01614
1.03642
1.01339
1.03419
1.00982
1.03244
1.00686
1.0306
1.00262
1.03102
0.99997
1.03243
0.994695
1.02659
0.983136
1.04604
0.891678
1.60301
1.04684
1.00552
1.03949
1.01446
1.03919
1.0142
1.03732
1.01596
1.0373
1.0165
1.03729
1.01649
1.03754
1.01879
1.03758
1.02011
1.03785
1.02083
1.03689
1.01934
1.03517
1.01654
1.03193
1.01532
1.0323
1.01481
1.03403
1.01593
1.03582
1.01651
1.0368
1.01756
1.03802
1.01649
1.03749
1.01363
1.03482
1.01008
1.03294
1.00733
1.03137
1.00312
1.03019
1.00025
1.03176
0.994668
1.02756
0.982629
1.04734
0.884642
1.60349
1.00426
1.03632
1.00795
1.0334
1.01114
1.02846
1.01548
1.02874
1.01772
1.02962
1.0179
1.03047
1.01926
1.0319
1.01956
1.03425
1.02056
1.03544
1.02101
1.03513
1.01923
1.03268
1.0167
1.03098
1.01448
1.03073
1.01528
1.03234
1.01606
1.03455
1.01756
1.03553
1.01709
1.0368
1.0164
1.03611
1.01375
1.03387
1.01006
1.0322
1.00697
1.03035
1.00271
1.03078
1.00015
1.0323
0.994909
1.02682
0.984156
1.05258
0.886695
1.59911
1.0444
1.00581
1.03837
1.01363
1.03813
1.01458
1.03661
1.01657
1.03752
1.01703
1.03645
1.01677
1.03554
1.01689
1.03536
1.01952
1.03697
1.02087
1.03697
1.02112
1.03669
1.01993
1.03472
1.01683
1.03196
1.01543
1.0319
1.01495
1.03359
1.01609
1.03516
1.01691
1.03656
1.01772
1.03762
1.0168
1.03717
1.01373
1.03462
1.01013
1.03279
1.00743
1.03098
1.00318
1.02999
1.0005
1.03169
0.994682
1.02768
0.979675
1.05058
0.890145
1.59947
1.00498
1.03471
1.00759
1.03137
1.01118
1.02851
1.01601
1.02934
1.01914
1.02996
1.01882
1.03006
1.01849
1.03026
1.02015
1.03184
1.02021
1.03416
1.02105
1.03503
1.02158
1.03482
1.01985
1.03259
1.01713
1.03092
1.01496
1.03041
1.01552
1.03208
1.01626
1.03439
1.0176
1.03535
1.01735
1.03664
1.01664
1.03591
1.01393
1.03377
1.0102
1.03202
1.00721
1.03043
1.00275
1.03021
1.0005
1.03237
0.995086
1.02696
0.982892
1.04864
0.891733
1.59497
1.04293
1.00691
1.03816
1.01324
1.03815
1.0156
1.03654
1.01778
1.03796
1.01793
1.03694
1.01757
1.03459
1.01777
1.03449
1.01807
1.03508
1.01961
1.03613
1.02149
1.03673
1.02173
1.03631
1.0203
1.03417
1.01736
1.03163
1.01564
1.03173
1.01512
1.03319
1.01647
1.03471
1.01703
1.03628
1.01777
1.03722
1.01688
1.03696
1.01381
1.03437
1.01028
1.03252
1.00745
1.03084
1.00341
1.02956
1.00044
1.0318
0.99478
1.02782
0.982626
1.04696
0.894174
1.59525
1.00601
1.03448
1.00866
1.03151
1.01238
1.02916
1.01702
1.0302
1.02044
1.03072
1.0204
1.03004
1.01988
1.03038
1.01945
1.03034
1.02006
1.03181
1.02085
1.03358
1.02136
1.03465
1.02208
1.03467
1.02035
1.0325
1.01711
1.03073
1.01524
1.0302
1.0157
1.03171
1.01634
1.03417
1.01755
1.03517
1.01755
1.03626
1.01672
1.03574
1.01413
1.03356
1.01038
1.03185
1.00731
1.03026
1.00302
1.03022
1.00047
1.03232
0.99521
1.02711
0.985077
1.04529
0.895783
1.59055
1.04197
1.00795
1.03739
1.01339
1.03849
1.01672
1.0367
1.01888
1.03803
1.01876
1.0373
1.01844
1.03536
1.01821
1.03339
1.01834
1.03337
1.01878
1.03428
1.01994
1.03539
1.02215
1.03623
1.022
1.03557
1.02074
1.03396
1.01795
1.03133
1.01581
1.03146
1.01529
1.03286
1.01665
1.03439
1.01718
1.03599
1.01784
1.03717
1.01699
1.03666
1.01393
1.03414
1.01038
1.03231
1.00751
1.03063
1.00334
1.02955
1.0004
1.03176
0.99488
1.02795
0.984146
1.04347
0.898094
1.59074
1.00741
1.03461
1.00993
1.03132
1.01375
1.02973
1.01799
1.03056
1.02082
1.03093
1.02159
1.03129
1.02133
1.03068
1.02059
1.03042
1.02011
1.03029
1.02014
1.03174
1.0212
1.03313
1.02198
1.03463
1.02247
1.0345
1.02083
1.03257
1.01746
1.0307
1.0153
1.03011
1.01571
1.03156
1.01647
1.03394
1.01762
1.03486
1.0177
1.03595
1.01696
1.03552
1.01432
1.03337
1.01057
1.03165
1.00753
1.03022
1.00316
1.03007
1.00041
1.0321
0.995351
1.02727
0.985853
1.04248
0.899524
1.58653
1.0416
1.00972
1.03775
1.01421
1.03908
1.01772
1.03675
1.01924
1.03715
1.01902
1.03741
1.01912
1.03592
1.01938
1.03419
1.01916
1.03292
1.01883
1.03281
1.01924
1.03376
1.02061
1.03501
1.02202
1.03563
1.02253
1.03532
1.02093
1.03372
1.01823
1.03117
1.01603
1.03127
1.01554
1.03259
1.01672
1.03405
1.01723
1.0357
1.01788
1.03696
1.01704
1.03644
1.01413
1.03397
1.01048
1.03197
1.00757
1.03043
1.00329
1.02949
1.00049
1.03181
0.995026
1.02814
0.984738
1.04318
0.894073
1.58689
1.00926
1.03507
1.01097
1.03165
1.01528
1.02995
1.01851
1.02997
1.0202
1.03055
1.02179
1.03099
1.02247
1.03136
1.02216
1.03098
1.0213
1.03051
1.02038
1.03052
1.02052
1.03174
1.02145
1.03325
1.02232
1.03464
1.02261
1.0346
1.02111
1.03256
1.01769
1.03052
1.01551
1.0299
1.01579
1.03138
1.01655
1.0337
1.01779
1.03475
1.01779
1.03583
1.01701
1.03539
1.01438
1.03316
1.01076
1.03148
1.00765
1.03009
1.00328
1.02995
1.00039
1.03204
0.995422
1.02757
0.986162
1.04841
0.895186
1.58244
1.04092
1.01072
1.03747
1.01487
1.03939
1.01827
1.03634
1.01884
1.03577
1.01907
1.0362
1.01918
1.03594
1.02021
1.03496
1.02012
1.03322
1.01958
1.03238
1.0194
1.03243
1.01958
1.03304
1.02102
1.03451
1.02255
1.03534
1.02285
1.03512
1.02108
1.03319
1.01849
1.03106
1.01616
1.03106
1.01566
1.03232
1.01673
1.03369
1.01734
1.03541
1.01789
1.03668
1.01718
1.03617
1.01428
1.03379
1.01055
1.0318
1.00765
1.03027
1.00331
1.02942
1.00049
1.03176
0.995195
1.0281
0.982191
1.04689
0.898135
1.58269
1.01076
1.03548
1.01236
1.03202
1.01617
1.02947
1.01835
1.0287
1.01936
1.02959
1.02106
1.03051
1.0228
1.0309
1.02288
1.03154
1.02239
1.03111
1.02188
1.03046
1.02066
1.03032
1.02085
1.03157
1.02158
1.03318
1.02243
1.03452
1.02267
1.03448
1.02139
1.03278
1.01792
1.03025
1.01568
1.02984
1.01582
1.03121
1.0167
1.03343
1.01784
1.03453
1.01782
1.03561
1.01704
1.03522
1.01447
1.03299
1.01087
1.03122
1.00777
1.02997
1.00329
1.02985
1.00031
1.03206
0.99556
1.02757
0.984934
1.04544
0.899007
1.57835
1.04106
1.01225
1.03768
1.01579
1.03934
1.01833
1.03543
1.018
1.03441
1.01886
1.03457
1.01945
1.03474
1.02033
1.03466
1.0211
1.03368
1.02112
1.03285
1.02028
1.03209
1.01978
1.03174
1.01997
1.03249
1.02137
1.03426
1.02271
1.03522
1.02301
1.03517
1.02134
1.03289
1.01877
1.03099
1.01627
1.03084
1.01574
1.03202
1.01681
1.03345
1.01744
1.0352
1.01793
1.03643
1.01732
1.03596
1.01436
1.0336
1.0106
1.03156
1.0077
1.03009
1.00334
1.02936
1.00045
1.03171
0.995536
1.02798
0.983659
1.0438
0.902162
1.57852
1.01189
1.03561
1.0131
1.0317
1.01647
1.02852
1.01778
1.0273
1.01871
1.02826
1.02001
1.02918
1.02194
1.02985
1.02301
1.03105
1.02333
1.03173
1.02274
1.03103
1.02202
1.03031
1.02102
1.0302
1.02121
1.0316
1.02166
1.03314
1.02262
1.03439
1.02289
1.03429
1.02155
1.03275
1.01816
1.03019
1.01581
1.02973
1.01582
1.03102
1.0168
1.03318
1.01776
1.03436
1.0178
1.03546
1.01714
1.03506
1.01449
1.03281
1.01094
1.03096
1.00787
1.02986
1.00332
1.02967
1.00034
1.03206
0.995852
1.02752
0.986161
1.04467
0.895098
1.57433
1.04063
1.01308
1.03693
1.01611
1.03865
1.01781
1.03413
1.01704
1.03322
1.01838
1.033
1.0194
1.03358
1.01976
1.03367
1.02135
1.03407
1.0218
1.03361
1.02166
1.03266
1.02076
1.03171
1.02018
1.03136
1.02031
1.03207
1.02166
1.03399
1.02289
1.03502
1.02316
1.03497
1.02163
1.03278
1.01885
1.03094
1.01633
1.03057
1.01595
1.03181
1.01685
1.03323
1.01761
1.03498
1.01803
1.03618
1.01729
1.03583
1.0145
1.03347
1.01077
1.03147
1.0077
1.02992
1.00342
1.02921
1.00044
1.03157
0.99586
1.02806
0.98463
1.04923
0.897709
1.57464
1.01267
1.03523
1.01396
1.03131
1.01652
1.02727
1.017
1.02607
1.01834
1.02704
1.0193
1.02836
1.02054
1.02901
1.02252
1.03
1.02325
1.03084
1.02389
1.03164
1.02313
1.03092
1.02222
1.03021
1.02131
1.03016
1.02136
1.03154
1.02181
1.03303
1.02279
1.0343
1.02308
1.03439
1.02168
1.03272
1.01831
1.03008
1.01596
1.02962
1.01587
1.03085
1.01678
1.03294
1.01783
1.03422
1.01781
1.03532
1.01711
1.03484
1.01453
1.03265
1.01105
1.03075
1.00796
1.02969
1.0034
1.02951
1.00031
1.03191
0.996163
1.02751
0.983772
1.04792
0.899387
1.57048
1.04004
1.01355
1.03608
1.01609
1.0375
1.01694
1.03277
1.01637
1.03242
1.01795
1.03189
1.01917
1.03201
1.01963
1.03252
1.02071
1.03268
1.02207
1.03311
1.02236
1.03293
1.02227
1.0325
1.02133
1.03138
1.02078
1.03108
1.0207
1.0319
1.02172
1.03372
1.02302
1.0348
1.02336
1.03482
1.02183
1.03275
1.01896
1.03076
1.01636
1.03041
1.016
1.03155
1.01695
1.03302
1.01762
1.03472
1.01803
1.03593
1.01747
1.03554
1.01464
1.03324
1.01081
1.03126
1.00776
1.02972
1.00353
1.02906
1.00049
1.03137
0.996125
1.02791
0.983583
1.04614
0.901683
1.57067
1.0132
1.03438
1.01396
1.03027
1.01597
1.02589
1.01638
1.02528
1.01831
1.02626
1.0193
1.02745
1.01965
1.02775
1.02139
1.02903
1.02279
1.03022
1.02371
1.03074
1.02409
1.03124
1.0234
1.03082
1.02251
1.03016
1.0214
1.03009
1.02146
1.03142
1.02198
1.0329
1.02295
1.03418
1.02319
1.03422
1.02184
1.03266
1.01847
1.03007
1.01611
1.02954
1.01594
1.03066
1.01687
1.03274
1.01783
1.03402
1.01771
1.03517
1.01717
1.03462
1.01465
1.03249
1.01115
1.03055
1.00807
1.02953
1.00343
1.02939
1.00042
1.03171
0.996589
1.02741
0.985778
1.04469
0.903497
1.56633
1.03928
1.01404
1.03542
1.01578
1.03605
1.01602
1.03168
1.0161
1.03188
1.01771
1.03148
1.01898
1.03102
1.01936
1.03116
1.02014
1.03127
1.02151
1.032
1.02238
1.03265
1.02294
1.03282
1.02262
1.03225
1.02168
1.03112
1.02118
1.03079
1.0209
1.03173
1.02186
1.03355
1.02312
1.03469
1.0235
1.03463
1.02192
1.03268
1.01905
1.0306
1.01647
1.03024
1.01607
1.03133
1.01698
1.03285
1.01764
1.03453
1.01809
1.03566
1.01751
1.0354
1.01471
1.033
1.01088
1.03099
1.00783
1.02951
1.00366
1.02897
1.00052
1.03099
0.996486
1.0277
0.985241
1.04242
0.905523
1.56619
1.01383
1.03359
1.0143
1.02931
1.01544
1.02473
1.01614
1.0249
1.01847
1.02585
1.01973
1.02729
1.01927
1.02761
1.02042
1.02814
1.02172
1.0291
1.02267
1.02992
1.0241
1.031
1.0241
1.03117
1.02355
1.03081
1.02272
1.03024
1.02158
1.03018
1.02154
1.0314
1.02206
1.03283
1.0231
1.03405
1.02331
1.03423
1.02199
1.03256
1.01867
1.02997
1.01626
1.02937
1.016
1.03049
1.01687
1.03258
1.01785
1.03386
1.0178
1.03498
1.01726
1.03448
1.01478
1.03226
1.0113
1.03034
1.00818
1.02931
1.00347
1.02914
1.00059
1.03144
0.997007
1.02733
0.987096
1.04155
0.907211
1.56204
1.03817
1.01384
1.03361
1.01499
1.03449
1.01537
1.03096
1.0162
1.03164
1.01804
1.03175
1.0188
1.03037
1.01955
1.02984
1.0199
1.02999
1.02075
1.03012
1.0225
1.03145
1.02285
1.03208
1.02351
1.03254
1.02296
1.03203
1.02185
1.03099
1.0214
1.03066
1.02103
1.03165
1.02197
1.03336
1.02325
1.03458
1.02356
1.03462
1.02203
1.03255
1.01917
1.03044
1.01652
1.03006
1.01612
1.03116
1.01701
1.03264
1.01763
1.03428
1.01809
1.03547
1.01749
1.03511
1.01481
1.03277
1.01096
1.03076
1.00788
1.02934
1.00375
1.02879
1.00044
1.03064
0.996692
1.02749
0.986155
1.04197
0.901939
1.56212
1.01371
1.03208
1.01396
1.02823
1.01489
1.02381
1.01624
1.02485
1.0189
1.02598
1.02062
1.0272
1.01998
1.02782
1.01986
1.02699
1.02094
1.02803
1.02212
1.02895
1.02268
1.02988
1.02423
1.03101
1.02432
1.03124
1.02375
1.0307
1.02284
1.03023
1.02168
1.03014
1.02165
1.03132
1.02213
1.03277
1.02321
1.03392
1.02347
1.03416
1.02216
1.03261
1.01884
1.03
1.0164
1.02929
1.01607
1.03033
1.01689
1.03243
1.01785
1.03372
1.01783
1.03485
1.01735
1.03435
1.01492
1.03211
1.01136
1.03019
1.00828
1.02916
1.00361
1.02894
1.00097
1.03136
0.99734
1.02726
0.987572
1.04706
0.903379
1.55804
1.03729
1.01368
1.0326
1.01457
1.03325
1.01519
1.03064
1.0166
1.03171
1.01878
1.03223
1.01907
1.03065
1.01912
1.02857
1.02033
1.02927
1.02066
1.02886
1.02175
1.02976
1.0231
1.03118
1.0233
1.03178
1.02372
1.03222
1.02321
1.03195
1.02221
1.03093
1.02155
1.03053
1.02109
1.03155
1.02207
1.03311
1.02327
1.03449
1.02362
1.03456
1.0221
1.03254
1.01924
1.03038
1.01656
1.02989
1.01617
1.03097
1.017
1.0325
1.01765
1.03404
1.0181
1.03529
1.01746
1.03495
1.01485
1.0326
1.01103
1.03052
1.00793
1.02922
1.00384
1.02858
1.00037
1.03047
0.996952
1.02739
0.983662
1.04515
0.906265
1.55758
1.01362
1.03152
1.01424
1.02722
1.01453
1.02327
1.01665
1.02504
1.01949
1.0264
1.02142
1.02737
1.02128
1.02706
1.02089
1.0268
1.02043
1.02734
1.02137
1.02754
1.02233
1.02897
1.02291
1.02982
1.0242
1.03091
1.02449
1.0313
1.02382
1.03076
1.02293
1.03013
1.02181
1.03009
1.02175
1.03119
1.02224
1.03254
1.02334
1.03389
1.02356
1.03409
1.02229
1.03256
1.01892
1.02997
1.01652
1.0291
1.01616
1.03015
1.01689
1.03225
1.01786
1.03351
1.01787
1.03461
1.01726
1.03429
1.01499
1.03194
1.01145
1.02997
1.00835
1.02896
1.00379
1.02874
1.00098
1.03123
0.997602
1.02727
0.986406
1.04361
0.907579
1.55388
1.03628
1.01341
1.03174
1.01403
1.03213
1.01524
1.03059
1.01718
1.03199
1.01973
1.03291
1.02002
1.03121
1.02004
1.02967
1.02045
1.02907
1.02103
1.02855
1.02144
1.02898
1.02195
1.02956
1.0232
1.03079
1.02362
1.03137
1.02402
1.03187
1.02351
1.0318
1.02244
1.03084
1.02174
1.03035
1.02124
1.03142
1.02215
1.03319
1.02334
1.03432
1.02369
1.03445
1.02215
1.03254
1.01938
1.03025
1.01665
1.02963
1.01618
1.03084
1.01702
1.03238
1.01764
1.03384
1.01814
1.03517
1.01764
1.03475
1.0149
1.03236
1.01107
1.03029
1.00808
1.02899
1.00395
1.02836
1.0005
1.03028
0.997171
1.02731
0.985572
1.04185
0.9099
1.55244
1.01403
1.03066
1.01379
1.0261
1.01445
1.02312
1.0173
1.02535
1.02024
1.02701
1.02235
1.02798
1.02239
1.02789
1.02162
1.02712
1.02116
1.02672
1.02079
1.02717
1.02148
1.02757
1.02253
1.02881
1.02315
1.02999
1.0244
1.03101
1.02457
1.03121
1.02402
1.03076
1.02307
1.03007
1.02194
1.03016
1.02183
1.03111
1.02236
1.03247
1.02342
1.03389
1.02362
1.03407
1.02238
1.03248
1.01909
1.02995
1.01663
1.0291
1.01618
1.03002
1.01688
1.03205
1.01788
1.03333
1.01787
1.0345
1.0173
1.03414
1.01501
1.03182
1.01151
1.02975
1.00848
1.02869
1.00396
1.0285
1.00103
1.03094
0.99773
1.02722
0.987711
1.04269
0.904165
1.54892
1.03524
1.01326
1.03078
1.01354
1.03124
1.01559
1.0308
1.01786
1.03237
1.02069
1.0334
1.02112
1.03177
1.02028
1.02939
1.02127
1.02893
1.02112
1.02869
1.0214
1.02818
1.02164
1.02862
1.02226
1.0294
1.02338
1.03034
1.02379
1.03126
1.02428
1.0317
1.02378
1.03164
1.02259
1.03081
1.02186
1.0303
1.02132
1.03134
1.02222
1.03303
1.02339
1.03421
1.02374
1.0344
1.02225
1.03246
1.01946
1.03018
1.01668
1.02953
1.01618
1.03068
1.01704
1.03217
1.01768
1.03364
1.01812
1.03499
1.01767
1.03455
1.01507
1.03221
1.0112
1.03002
1.00818
1.02877
1.00412
1.02816
1.0006
1.03019
0.997316
1.02723
0.986383
1.04615
0.907746
1.54829
1.01423
1.02974
1.014
1.02552
1.01496
1.02327
1.01807
1.02576
1.02112
1.02775
1.0234
1.02862
1.02326
1.02794
1.02316
1.02756
1.02208
1.02713
1.02141
1.02668
1.02107
1.02696
1.02159
1.02743
1.0226
1.02867
1.02327
1.02999
1.02441
1.03094
1.02465
1.03118
1.02419
1.03078
1.02317
1.03004
1.02199
1.03006
1.02194
1.03104
1.02241
1.03246
1.02346
1.03386
1.02367
1.03404
1.0225
1.03243
1.0192
1.02991
1.01672
1.02898
1.0162
1.02986
1.01691
1.0319
1.01787
1.03317
1.01791
1.03431
1.01735
1.03398
1.01508
1.03166
1.01163
1.02956
1.00863
1.02846
1.00412
1.02826
1.00111
1.03074
0.997898
1.02725
0.98563
1.04481
0.909601
1.54498
1.03477
1.01341
1.03017
1.01341
1.03088
1.01616
1.03115
1.01852
1.03276
1.02162
1.03396
1.02243
1.03261
1.02173
1.03054
1.0219
1.02954
1.0217
1.02823
1.02142
1.0283
1.02178
1.0281
1.02193
1.02856
1.02241
1.02925
1.02356
1.03029
1.024
1.03114
1.0245
1.03167
1.02391
1.03154
1.02274
1.03074
1.022
1.03031
1.0214
1.03126
1.02229
1.03292
1.02346
1.03413
1.02382
1.03436
1.02232
1.03238
1.01954
1.03009
1.01668
1.0294
1.01619
1.03047
1.01706
1.03199
1.0177
1.03346
1.01816
1.03477
1.01776
1.03434
1.01515
1.03198
1.01131
1.02977
1.00834
1.02854
1.0042
1.02787
1.00066
1.03017
0.997412
1.02725
0.985551
1.04311
0.911466
1.5442
1.01443
1.02925
1.01442
1.02509
1.01567
1.02338
1.01885
1.02616
1.02193
1.02826
1.02406
1.0293
1.02408
1.02868
1.02425
1.02828
1.02335
1.02745
1.02216
1.02731
1.02182
1.02668
1.02123
1.02693
1.02175
1.02741
1.02257
1.0285
1.02335
1.02986
1.02445
1.03093
1.02474
1.0311
1.02424
1.03081
1.02326
1.03008
1.02203
1.03002
1.022
1.03097
1.02244
1.03241
1.02351
1.03375
1.02373
1.03402
1.0226
1.03245
1.01931
1.02987
1.01677
1.02891
1.01623
1.02967
1.01688
1.03174
1.01789
1.033
1.01797
1.03418
1.01743
1.03384
1.0152
1.03151
1.01169
1.02938
1.00873
1.02827
1.00432
1.02801
1.00106
1.03064
0.998001
1.02721
0.987365
1.04214
0.9134
1.54068
1.03417
1.01373
1.0299
1.01339
1.03085
1.01698
1.03152
1.01913
1.03313
1.02247
1.0344
1.02327
1.0332
1.02297
1.03136
1.0228
1.02996
1.02247
1.02894
1.02248
1.02809
1.0216
1.02772
1.02195
1.02789
1.0221
1.02828
1.02261
1.02918
1.02366
1.03023
1.02417
1.03112
1.02451
1.03162
1.024
1.03146
1.02287
1.03068
1.02212
1.03026
1.02147
1.03117
1.02236
1.03283
1.02348
1.03409
1.02381
1.03429
1.02239
1.03235
1.01961
1.03
1.01675
1.02931
1.01619
1.0304
1.01708
1.03178
1.01774
1.03321
1.01819
1.03458
1.0178
1.03411
1.01525
1.03175
1.01143
1.02949
1.00848
1.02832
1.00429
1.02766
1.00064
1.03008
0.997514
1.02725
0.987022
1.04032
0.915015
1.53987
1.01482
1.02888
1.01488
1.02501
1.01629
1.02368
1.01962
1.02652
1.0226
1.02858
1.0248
1.02972
1.0249
1.02977
1.02498
1.02877
1.02437
1.02818
1.02347
1.02776
1.02263
1.02732
1.02212
1.02682
1.02144
1.02692
1.02201
1.02736
1.02271
1.02844
1.02337
1.02969
1.02442
1.03091
1.02479
1.03113
1.02435
1.03073
1.02333
1.0301
1.0221
1.02996
1.02206
1.03088
1.02252
1.03236
1.02356
1.03372
1.02383
1.03398
1.02271
1.03243
1.01943
1.02985
1.01685
1.0288
1.01627
1.02954
1.01693
1.03157
1.01793
1.03276
1.01804
1.03401
1.01753
1.03364
1.01532
1.03135
1.01178
1.02919
1.0088
1.02809
1.00443
1.0278
1.0011
1.03039
0.998075
1.02724
0.988472
1.03948
0.916992
1.53595
1.03347
1.01399
1.02943
1.01357
1.03101
1.01764
1.03187
1.01963
1.03328
1.02285
1.03419
1.02405
1.03334
1.02374
1.03163
1.02379
1.0309
1.02382
1.0294
1.02315
1.02855
1.02265
1.028
1.02181
1.02751
1.02207
1.02767
1.02217
1.02826
1.02273
1.02908
1.02376
1.03011
1.02422
1.03109
1.02458
1.03163
1.02414
1.0314
1.02297
1.03062
1.02218
1.03022
1.02161
1.03112
1.0224
1.03272
1.02356
1.034
1.02378
1.03424
1.02246
1.0323
1.01967
1.02996
1.01678
1.0292
1.0162
1.03021
1.0171
1.03159
1.01781
1.03304
1.01821
1.03438
1.01786
1.03383
1.01534
1.03151
1.01154
1.02924
1.0086
1.02809
1.00438
1.02736
1.0007
1.02998
0.99759
1.02734
0.987962
1.0378
0.918014
1.53383
1.01519
1.02844
1.01534
1.02492
1.01696
1.02407
1.02029
1.02671
1.02296
1.02848
1.02507
1.02995
1.02551
1.02981
1.02534
1.02941
1.02561
1.02884
1.02467
1.02856
1.02398
1.02772
1.02288
1.02706
1.0224
1.02676
1.02183
1.0268
1.02201
1.0273
1.02276
1.02838
1.02341
1.02973
1.02445
1.03087
1.02485
1.03114
1.02445
1.03069
1.02343
1.03009
1.02221
1.02993
1.02208
1.03084
1.02258
1.03233
1.02359
1.03367
1.02392
1.03393
1.02275
1.03236
1.01953
1.02977
1.01691
1.0287
1.01627
1.02944
1.01694
1.0314
1.01796
1.0326
1.01814
1.0338
1.0176
1.03347
1.01547
1.0311
1.01186
1.02899
1.00893
1.02789
1.00453
1.02751
1.00122
1.03023
0.998149
1.02735
0.989036
1.03767
0.921059
1.53091
1.03291
1.01483
1.0293
1.014
1.03109
1.01822
1.03212
1.01993
1.03308
1.02284
1.03385
1.02421
1.03318
1.02442
1.03257
1.02528
1.03162
1.02463
1.03012
1.0242
1.02913
1.02349
1.02838
1.02286
1.02779
1.0221
1.02739
1.0221
1.02765
1.02217
1.02809
1.02276
1.02896
1.02381
1.03009
1.0243
1.03104
1.02459
1.0316
1.0242
1.03142
1.0231
1.03055
1.02227
1.03021
1.02169
1.03107
1.02242
1.03257
1.02362
1.03393
1.02386
1.03416
1.02257
1.0323
1.01973
1.02994
1.01679
1.02909
1.01622
1.03003
1.01712
1.03142
1.01784
1.03284
1.01826
1.03419
1.01796
1.03363
1.01547
1.03135
1.01163
1.02895
1.0087
1.02785
1.0045
1.027
1.00075