/*--------------------------------*- C++ -*----------------------------------*\
| =========                 |                                                 |
| \\      /  F ield         | OpenFOAM: The Open Source CFD Toolbox           |
|  \\    /   O peration     | Version:  2206                                  |
|   \\  /    A nd           | Website:  www.openfoam.com                      |
|    \\/     M anipulation  |                                                 |
\*---------------------------------------------------------------------------*/
FoamFile
{
    version     2.0;
    format      ascii;
    arch        "LSB;label=32;scalar=64";
    class       volScalarField;
    location    "210";
    object      rhoPrime2Mean;
}
// * * * * * * * * * * * * * * * * * * * * * * * * * * * * * * * * * * * * * //

dimensions      [2 -6 0 0 0 0 0];

internalField   nonuniform List<scalar> 
93840
(
0.174642
0.0104555
0.255341
0.00262953
0.0154061
0.287996
0.012146
0.00176811
0.00794489
0.168943
0.000266744
0.00242294
0.00266371
0.00399312
0.135679
0.000131708
0.00333456
0.00146451
0.00436798
0.00470805
0.150473
0.000207182
0.00125616
0.0024747
0.00956609
0.00212304
0.0109221
0.184405
0.000100776
0.00168444
0.000841857
0.000673617
0.00408649
0.00276491
0.0125199
0.215729
0.000163525
0.000967075
0.00140026
0.000891235
0.00120791
0.00614369
0.00136576
0.0129277
0.214458
0.000156586
0.000784805
0.000846607
0.000605791
0.000731084
0.00156314
0.001988
0.00122517
0.0125434
0.245992
0.00010634
0.000572483
0.000806503
0.000513185
0.00143657
0.00196325
0.00264835
0.0018673
0.00180921
0.0140014
0.225949
0.000106888
0.000561839
0.00073178
0.00050231
0.000793916
0.00101233
0.00125715
0.00130615
0.000939189
0.00157699
0.0136727
0.24362
8.80107e-05
0.000403695
0.000767461
0.000505786
0.000643706
0.0015361
0.00113799
0.00132208
0.00116606
0.00173436
0.00215793
0.014053
0.230463
8.34435e-05
0.000403539
0.00076512
0.000611516
0.000681388
0.000518676
0.000897846
0.000977098
0.000598308
0.00134591
0.000914705
0.00122378
0.0137751
0.249259
8.9184e-05
0.000259716
0.000777114
0.000603609
0.000493139
0.00117308
0.000556567
0.00120789
0.00071106
0.00122028
0.00121885
0.00148105
0.00204975
0.014086
0.232167
7.64366e-05
0.000359361
0.000759137
0.000676929
0.000618277
0.000450171
0.000826939
0.000412078
0.000504891
0.000899883
0.000592854
0.00127287
0.0010821
0.00133649
0.0137156
0.252253
9.66458e-05
0.000227562
0.000800179
0.000656409
0.000493307
0.00108389
0.00026376
0.000870393
0.00047408
0.000977012
0.000734442
0.00117648
0.00127107
0.00138968
0.00189451
0.0140443
0.234117
9.03982e-05
0.000327027
0.000819328
0.000664637
0.000579138
0.000459838
0.000709113
0.000294953
0.000518736
0.000385405
0.000439485
0.000817536
0.000674397
0.00123648
0.00115224
0.00133798
0.0135698
0.254218
0.000114379
0.000253672
0.00082589
0.000623211
0.000424875
0.00104605
0.000193766
0.000798769
0.000302243
0.00072882
0.000451015
0.000960006
0.000661064
0.00115272
0.00125895
0.00137335
0.00180283
0.0139432
0.235178
0.000108401
0.000326569
0.000852835
0.000599673
0.000506555
0.000464543
0.000619776
0.000262294
0.000498782
0.000282307
0.000454556
0.000377098
0.000451182
0.000790186
0.000720667
0.00121289
0.00115131
0.00134598
0.0133716
0.254522
0.000133624
0.000303494
0.000831358
0.000633107
0.000399928
0.000955098
0.000180086
0.000804969
0.000234259
0.000746837
0.000324043
0.000645769
0.000450101
0.000901967
0.000682838
0.00112213
0.00121272
0.001277
0.00174048
0.0138136
0.235816
0.000128281
0.000312627
0.000840812
0.000594236
0.000404278
0.000413596
0.000565439
0.000237136
0.000461449
0.00025626
0.000428744
0.000284552
0.000398884
0.000361686
0.000444634
0.000735004
0.00074505
0.00117521
0.00115432
0.00133985
0.0131799
0.253397
0.000176807
0.000337048
0.000852186
0.000607506
0.000361168
0.000899688
0.000169871
0.000755633
0.000209576
0.000829833
0.000229766
0.000662412
0.000347516
0.00062238
0.000471244
0.000855121
0.000600525
0.00108617
0.00123381
0.00120249
0.00168362
0.0136947
0.236717
0.000136065
0.000331535
0.000878139
0.000597409
0.000358137
0.000407625
0.000464129
0.000221675
0.000432391
0.000239036
0.000393708
0.000262952
0.000377577
0.000288473
0.000378886
0.000349647
0.000477231
0.000713379
0.000762362
0.00112912
0.00113254
0.00132584
0.0129646
0.251382
0.000191364
0.000407576
0.0008743
0.000579124
0.000329022
0.000840952
0.000164185
0.000667669
0.000150332
0.00074813
0.000185465
0.000614014
0.000259142
0.000610427
0.000339893
0.000456571
0.000418239
0.000723205
0.000562978
0.00100452
0.00122217
0.00117865
0.00162488
0.0131869
0.249889
0.000135294
0.000362493
0.000816485
0.000603144
0.000354529
0.000367936
0.000395168
0.000215144
0.000395039
0.000228539
0.000338657
0.000235613
0.000317406
0.000266042
0.000356799
0.000281903
0.000379641
0.000356418
0.000529623
0.00067538
0.000809474
0.00111814
0.00112301
0.00131092
0.0119245
0.255389
0.000191179
0.000414069
0.000951448
0.000599201
0.00034305
0.000804825
0.000169639
0.000587529
0.000140065
0.000610665
0.000156033
0.000519484
0.000193723
0.000591856
0.000265111
0.000492642
0.000350435
0.000465831
0.00039402
0.000609196
0.000554958
0.000982887
0.00122314
0.00115522
0.00157707
0.0141325
0.247166
0.000139388
0.000384766
0.000787057
0.000653403
0.000317057
0.000406164
0.000350612
0.000229538
0.000347351
0.000201245
0.000379242
0.000219482
0.000320799
0.000232211
0.000312073
0.000283711
0.000358891
0.000292918
0.000364131
0.000358373
0.00059893
0.000671842
0.000811492
0.00110521
0.00110224
0.00141357
0.0129331
0.247886
0.000181866
0.00040175
0.000996404
0.00053925
0.000360268
0.000740073
0.000185721
0.000505808
0.000139495
0.000541059
0.000144757
0.000457108
0.000154084
0.000487463
0.000196665
0.000485747
0.000255877
0.000441257
0.000343869
0.000476602
0.000387542
0.000602499
0.000573157
0.000957361
0.00122041
0.00109975
0.00160031
0.0131797
0.242251
0.000150664
0.000384332
0.000743674
0.000666518
0.000296191
0.000437117
0.000362466
0.000268446
0.000309052
0.000212037
0.000331147
0.000200958
0.000329551
0.00021524
0.000327622
0.000243463
0.000319515
0.000280273
0.000367092
0.000299687
0.000357704
0.000373279
0.000563452
0.000695867
0.000825295
0.00110173
0.0011274
0.0012834
0.012161
0.244652
0.000167591
0.000387876
0.00103019
0.000484682
0.000389526
0.000736362
0.000221747
0.000436981
0.000178341
0.000422906
0.000141437
0.000400332
0.000167413
0.000420655
0.000149087
0.000447321
0.000182404
0.000459327
0.000239326
0.000377572
0.000325926
0.000464694
0.000385361
0.00061633
0.000583041
0.000871381
0.00120396
0.00109968
0.00150022
0.0124935
0.23961
0.000182689
0.000334079
0.00068685
0.000676741
0.000264593
0.000444548
0.000324726
0.000281025
0.000305808
0.000236266
0.000312614
0.000205504
0.000318407
0.000188727
0.000319317
0.000204404
0.000319901
0.000252413
0.00031624
0.000273615
0.000346453
0.000310941
0.000349135
0.000389498
0.000546145
0.000713863
0.000893897
0.00106168
0.00114394
0.00128882
0.0115116
0.241945
0.000166981
0.000408041
0.00110913
0.000446721
0.000419986
0.000670994
0.000265106
0.00039426
0.000232859
0.000340385
0.000182024
0.000320639
0.000170972
0.000370599
0.000170805
0.00040248
0.00015136
0.000404304
0.000181047
0.000425417
0.000239996
0.000412255
0.000313858
0.000437132
0.000383118
0.000599355
0.000601587
0.000851277
0.00118208
0.00110104
0.00145362
0.0119211
0.237531
0.000209986
0.000337204
0.000679268
0.000651486
0.00025995
0.000439493
0.00027891
0.000294505
0.000305612
0.000237959
0.000285938
0.000215373
0.000281357
0.000186184
0.000287134
0.000172646
0.000285131
0.00019711
0.000305792
0.000236274
0.000311416
0.000268779
0.000337986
0.000320859
0.000335088
0.000390861
0.000532304
0.000713196
0.000900916
0.00103787
0.00116092
0.00125848
0.0109595
0.240323
0.000166544
0.000400798
0.0011311
0.000426278
0.000418357
0.000633406
0.000286722
0.000371612
0.000269298
0.000321802
0.000229324
0.00030714
0.000190641
0.000305661
0.000189916
0.000334635
0.000173761
0.000363264
0.000164689
0.000369229
0.000189808
0.000400829
0.000239877
0.000399447
0.000301839
0.000439451
0.000384391
0.000599692
0.000591599
0.000880366
0.00117268
0.00116286
0.0013889
0.0133135
0.236345
0.00022812
0.000368078
0.000669535
0.000646454
0.000250654
0.000420912
0.000249815
0.000320318
0.000276612
0.000251823
0.000298734
0.000213102
0.000252058
0.000195434
0.000249671
0.00017445
0.000264707
0.000166205
0.000273845
0.000189546
0.000293944
0.000237025
0.000307954
0.000254314
0.000331645
0.000317782
0.000327405
0.000394929
0.000529603
0.00071156
0.000900183
0.00102467
0.0011701
0.00130227
0.0123609
0.238651
0.000157125
0.000377516
0.0011476
0.000405481
0.000422469
0.000597218
0.000295191
0.000324008
0.000291836
0.000321715
0.000273534
0.000277519
0.000237577
0.000273924
0.000193357
0.000256082
0.000183473
0.000279486
0.000171585
0.000312536
0.000166408
0.00033371
0.000202657
0.000365962
0.000234306
0.000392501
0.000283498
0.000435167
0.000380925
0.000601815
0.000580154
0.000903655
0.00115217
0.00127183
0.0013767
0.0123682
0.234423
0.000251665
0.000386806
0.000649464
0.000703496
0.00023284
0.000425157
0.000229075
0.00031896
0.000249462
0.000298072
0.000266335
0.00024543
0.000257947
0.000201145
0.000222072
0.000187215
0.000224156
0.000160819
0.000262241
0.000161212
0.000270172
0.000183526
0.000290842
0.000219352
0.000321344
0.000238705
0.000329205
0.000315142
0.000358231
0.00038824
0.00052614
0.000699513
0.000898513
0.00100863
0.00125414
0.0012449
0.0115746
0.236766
0.000171472
0.000373288
0.00113524
0.000366962
0.000476411
0.000545184
0.00028858
0.000284227
0.000267473
0.000299852
0.000271699
0.000262891
0.000268199
0.000263785
0.000240374
0.00023725
0.000189782
0.000230261
0.000181757
0.000240191
0.000165793
0.00029524
0.000163192
0.000326509
0.000197181
0.000354973
0.000223038
0.000397576
0.000281218
0.000426075
0.000367674
0.00061223
0.000581999
0.000908239
0.00112688
0.00117697
0.00131446
0.0116063
0.23322
0.000268759
0.000416453
0.000640376
0.000710848
0.00024903
0.000407838
0.000221049
0.000290769
0.000227405
0.00030202
0.000244547
0.000261605
0.000230365
0.000223649
0.000240988
0.000196308
0.000206434
0.000178789
0.000211118
0.000153269
0.000237344
0.000148395
0.000266207
0.000177779
0.00029386
0.000205351
0.000324615
0.000234891
0.000330299
0.00031312
0.000360219
0.000394762
0.000527247
0.000701565
0.000914423
0.000998594
0.0011927
0.00124685
0.0128169
0.235595
0.000186071
0.000362955
0.00113581
0.000349464
0.000483011
0.00051667
0.00025743
0.000256576
0.000247896
0.000265161
0.000226508
0.000247521
0.000264022
0.000251734
0.00025698
0.000221488
0.000235405
0.000221528
0.00018124
0.000200762
0.000176284
0.00023961
0.000152795
0.000284426
0.000158581
0.000317066
0.000190618
0.00035262
0.000216143
0.000398359
0.000271337
0.000428682
0.000366926
0.000606374
0.000592001
0.000919121
0.00111684
0.00114608
0.00141923
0.0128465
0.231711
0.000275649
0.000471161
0.000617877
0.000714506
0.000257641
0.000380008
0.000221591
0.000276715
0.000207363
0.000261272
0.000206672
0.000238636
0.000203345
0.000254645
0.000219525
0.000219278
0.00022613
0.00018589
0.000198129
0.000167567
0.00020339
0.000152432
0.000229991
0.00014502
0.000261393
0.000172837
0.000291992
0.000196712
0.000325717
0.000228225
0.000336548
0.000308725
0.000362893
0.000397037
0.000538526
0.000696207
0.000918615
0.00099378
0.00137511
0.00132255
0.011843
0.234049
0.000200712
0.000340158
0.00114874
0.000346647
0.00046548
0.000508126
0.000253487
0.00023847
0.000254777
0.000231186
0.000220182
0.000228207
0.000212489
0.000225946
0.000243966
0.00023331
0.000240561
0.000207293
0.000182056
0.00021777
0.000170668
0.000194798
0.00013842
0.000237409
0.00014623
0.000264687
0.000149866
0.000318248
0.000188263
0.000346233
0.00021584
0.000394916
0.000267333
0.00041997
0.000368314
0.000605873
0.000598553
0.000930865
0.00110821
0.00119144
0.00131921
0.0119236
0.2296
0.00027792
0.000525989
0.000542595
0.000691074
0.000256036
0.000383068
0.000231275
0.000279828
0.000193259
0.000268953
0.000177563
0.000233784
0.000182645
0.00022116
0.000196303
0.000234219
0.000201285
0.000207884
0.000212651
0.000179861
0.000193665
0.000163
0.000200433
0.000140719
0.000223951
0.000140167
0.000265216
0.000151011
0.000292976
0.000190813
0.000329725
0.000224297
0.000336895
0.000305294
0.000367782
0.000398576
0.000539635
0.000686622
0.000912878
0.000981416
0.00125418
0.00123242
0.0110677
0.231779
0.000217209
0.000356797
0.00114417
0.000356622
0.000448952
0.000478908
0.000265895
0.000224174
0.000272562
0.000197523
0.00023583
0.000218221
0.000203537
0.000210876
0.000187913
0.000221559
0.000184615
0.000218479
0.000179679
0.000208366
0.000186302
0.000197157
0.000164099
0.000193622
0.000147675
0.000225106
0.000138309
0.000259301
0.00015355
0.000307829
0.000184194
0.000340541
0.000213122
0.000388647
0.000264244
0.000417465
0.000366641
0.000615361
0.000599167
0.000947144
0.00110316
0.00110802
0.00123964
0.0111288
0.227784
0.00027712
0.000588367
0.000497168
0.000683972
0.000240556
0.000413251
0.000237943
0.000283083
0.000200899
0.000272937
0.000169468
0.000240711
0.00015911
0.00021598
0.0001719
0.000212164
0.000190384
0.000210001
0.000195663
0.000200077
0.000204385
0.000174844
0.00018703
0.000157141
0.000193592
0.000137466
0.000219501
0.000140212
0.000262855
0.000148084
0.00029596
0.000181399
0.000331761
0.00022206
0.000336855
0.000312912
0.000371142
0.000399964
0.000542545
0.000677465
0.00091355
0.00097503
0.00120931
0.00122563
0.0120124
0.230099
0.000229079
0.000373321
0.00108788
0.00033345
0.000461919
0.00044709
0.000294154
0.000213832
0.00031665
0.00017359
0.000258346
0.000181898
0.000205709
0.000212746
0.000172077
0.000196946
0.000192702
0.000203983
0.000190119
0.000218835
0.000179984
0.000197664
0.000181417
0.000196362
0.000156254
0.000190578
0.000148957
0.000215817
0.000137804
0.000246375
0.000152991
0.000302032
0.000180598
0.000338495
0.000214043
0.000376127
0.0002677
0.00041632
0.000368054
0.000618829
0.000602634
0.00095423
0.00110069
0.00107832
0.00136238
0.0121234
0.225924
0.000284125
0.000617026
0.000462744
0.000691461
0.000220586
0.00045733
0.000246262
0.000282179
0.000219602
0.000261706
0.000170253
0.000245573
0.000149836
0.000215754
0.000142045
0.000197028
0.000158767
0.000190573
0.000182
0.000192245
0.000192856
0.000197619
0.000200837
0.000169217
0.000180284
0.00015671
0.000193775
0.000137347
0.000213956
0.000135677
0.000252013
0.000149017
0.000301492
0.000184662
0.000333893
0.000220856
0.00032896
0.000314302
0.000378332
0.000400584
0.000548933
0.000671779
0.000916524
0.000970541
0.0013757
0.00130193
0.0110129
0.228158
0.000239429
0.000381839
0.00104014
0.000341855
0.000465427
0.000414293
0.000308063
0.000199708
0.000348045
0.000156384
0.000283417
0.00016727
0.00022073
0.000167388
0.000196821
0.000174902
0.00015081
0.000186412
0.000165482
0.000194847
0.000185522
0.000206528
0.000182441
0.000193869
0.000174821
0.000199212
0.000155941
0.000176526
0.000141113
0.000207031
0.000136367
0.000257038
0.000152184
0.000299153
0.000180607
0.000335669
0.000211424
0.000375087
0.000266833
0.000418392
0.000370689
0.000621991
0.000590535
0.000947372
0.00108813
0.00111723
0.00127222
0.0112296
0.224197
0.000283376
0.000596524
0.000414735
0.000699984
0.000207388
0.000506953
0.000241193
0.000293221
0.000256199
0.000249523
0.000179841
0.000244135
0.000145807
0.000221872
0.000142022
0.000197349
0.000138053
0.000185868
0.000144093
0.000179427
0.00017803
0.000181824
0.000186076
0.000195148
0.000193744
0.000176531
0.000178178
0.000154428
0.000194016
0.000136855
0.000207643
0.000127921
0.000249435
0.000141454
0.000302184
0.000183441
0.00033639
0.000220244
0.000332358
0.00031179
0.00038317
0.000399209
0.00055774
0.000650239
0.000933387
0.000967293
0.00128184
0.0012372
0.0102555
0.226618
0.00025677
0.000382062
0.000992328
0.000327108
0.000461056
0.000408398
0.000325195
0.000188868
0.000354443
0.000153392
0.000301024
0.000153896
0.000243839
0.000159628
0.000207601
0.000149582
0.000171808
0.000171408
0.000150136
0.000178159
0.000154447
0.000179551
0.000169045
0.000200705
0.000174144
0.000194885
0.000167494
0.000195395
0.000154457
0.000170664
0.000138518
0.000206281
0.000130935
0.000250123
0.000156426
0.000294685
0.000181191
0.000333892
0.000212924
0.000369522
0.000266441
0.000422864
0.00037586
0.000624843
0.000572118
0.000951557
0.00108441
0.00104345
0.0012448
0.0120228
0.22261
0.000279981
0.000581737
0.000379926
0.000730012
0.000210146
0.000563777
0.000235472
0.000304035
0.000283935
0.000239125
0.000197557
0.000231997
0.00016698
0.000229398
0.000137957
0.000204801
0.000135081
0.00018391
0.000127733
0.000176916
0.000145601
0.000169698
0.000167759
0.000173584
0.000179226
0.00018597
0.000194573
0.000173021
0.000178686
0.000150573
0.000193206
0.000135449
0.000200528
0.000127033
0.000249714
0.000140572
0.000301769
0.000182151
0.000336856
0.000225106
0.000333479
0.000299455
0.000388322
0.000401117
0.000561147
0.000633834
0.00093488
0.000960002
0.00124791
0.00134073
0.0110306
0.224882
0.000272967
0.000373084
0.000947065
0.000341295
0.000474418
0.000412706
0.000332551
0.000189374
0.000340125
0.000157429
0.000314577
0.000155764
0.000260182
0.000139242
0.000220861
0.000152976
0.000189449
0.00015326
0.000157387
0.000160895
0.000134322
0.000165406
0.000150502
0.000172166
0.000167445
0.000197634
0.000172014
0.00019375
0.000166912
0.00018988
0.00014674
0.000171651
0.000137914
0.000206448
0.000131542
0.000243848
0.000157716
0.000290187
0.000183169
0.000331188
0.00021441
0.000373641
0.000257194
0.000424317
0.000370683
0.000627268
0.000561765
0.000955139
0.00107793
0.0011479
0.00127335
0.0111395
0.220748
0.000277302
0.000548206
0.000368428
0.000741515
0.000201467
0.000602131
0.000238222
0.000318288
0.000304609
0.000233836
0.000208701
0.000213682
0.000175431
0.000214802
0.000156595
0.000201654
0.000132448
0.000193442
0.000133587
0.000169579
0.000126254
0.000162761
0.000141279
0.000157782
0.000162922
0.000170663
0.000177506
0.000182933
0.000189679
0.000168567
0.000180347
0.000150584
0.000191551
0.000133877
0.000202132
0.000128953
0.000251535
0.000142531
0.000304125
0.000182409
0.000340789
0.000226879
0.000339672
0.000304803
0.000390868
0.000380477
0.000568899
0.000631538
0.000932602
0.000954759
0.00131567
0.00125248
0.0102301
0.223093
0.000290158
0.00037492
0.000913485
0.000366442
0.000499514
0.00040306
0.000324905
0.000197491
0.000302076
0.000154289
0.000294196
0.000147931
0.000261209
0.000140603
0.000226599
0.000134008
0.000213697
0.000144045
0.000177984
0.000149781
0.000157461
0.000150519
0.00013256
0.000154669
0.000131724
0.000170945
0.000162923
0.000192369
0.000167674
0.000188515
0.00016695
0.000187932
0.000143555
0.000173162
0.000137008
0.000203949
0.000129804
0.000239849
0.000154099
0.000288788
0.000183066
0.000324682
0.000213994
0.000373705
0.00025944
0.000431905
0.000355652
0.000632966
0.000562957
0.000953596
0.00107551
0.00104569
0.00119786
0.0103917
0.218848
0.000263797
0.000517783
0.000372417
0.000730859
0.000229529
0.000621325
0.000237394
0.000329766
0.000302234
0.000232895
0.000211629
0.000213367
0.000189899
0.00020212
0.000148214
0.000207596
0.000143969
0.00019415
0.00013363
0.000184964
0.000123022
0.000159865
0.000125779
0.00015261
0.000138371
0.000149746
0.000154424
0.000165169
0.000173902
0.000180065
0.00018842
0.000169279
0.000180303
0.000149344
0.000189116
0.00013426
0.00020337
0.000129558
0.000252723
0.000142323
0.000304451
0.000182745
0.000340538
0.000224771
0.000344648
0.000298295
0.000399218
0.000389358
0.000572382
0.000625551
0.000936011
0.000951166
0.00123345
0.0012068
0.00952039
0.220926
0.000302131
0.000362645
0.00086643
0.000384985
0.000523847
0.000411152
0.000303919
0.000202302
0.00028044
0.000157378
0.000268404
0.000133247
0.000224031
0.00012246
0.000207383
0.000136749
0.000207453
0.000128037
0.000206155
0.000135286
0.000159323
0.000141868
0.000150912
0.00014347
0.000137816
0.000151137
0.000132753
0.000168109
0.000158373
0.000186632
0.000168022
0.000185759
0.000163361
0.000187038
0.000144585
0.000175647
0.000137405
0.000202256
0.000129046
0.000239269
0.000152398
0.000287027
0.000183315
0.000327312
0.000214995
0.00037316
0.000258396
0.000431223
0.000355706
0.000636699
0.000561485
0.0009528
0.00106972
0.00102661
0.00114664
0.00974593
0.2165
0.000264063
0.000492736
0.000391057
0.000738753
0.000234388
0.000631353
0.000237235
0.000342579
0.000292813
0.00025034
0.000206747
0.000203444
0.000203788
0.000192788
0.000181311
0.000192673
0.000141047
0.000198131
0.000135927
0.000190236
0.000132295
0.000171741
0.000121225
0.000155482
0.000123212
0.000135362
0.000134837
0.00014504
0.000151914
0.000162821
0.000175061
0.00017418
0.00018598
0.000166525
0.000179199
0.000149363
0.000189759
0.000134183
0.000204867
0.000131193
0.000256445
0.000141586
0.000305749
0.000183614
0.000344583
0.000222341
0.000350935
0.000295377
0.000406921
0.00039075
0.00057377
0.000617188
0.000932578
0.000941615
0.00114807
0.00118129
0.0089271
0.218898
0.000317238
0.000366384
0.000831817
0.000394887
0.000504982
0.000405809
0.000285093
0.000205805
0.000263391
0.000167023
0.000250245
0.000134141
0.000226155
0.000113885
0.000193869
0.000122857
0.000193358
0.000122086
0.000196207
0.000122306
0.000197403
0.000131397
0.000160685
0.00013173
0.000142615
0.000138523
0.000136931
0.000146819
0.000129266
0.000165509
0.000154855
0.000182396
0.000168929
0.000185757
0.000164502
0.000185043
0.000147793
0.000173601
0.000137449
0.000199847
0.000127509
0.000237506
0.000151564
0.000286826
0.000183022
0.000330316
0.000211848
0.000374322
0.00026076
0.000425927
0.000361114
0.000641235
0.000564896
0.000953108
0.00106456
0.000990648
0.00115128
0.0103987
0.214562
0.000243733
0.000474549
0.000393348
0.000752071
0.000255524
0.000598301
0.000222775
0.000349574
0.000285617
0.000258337
0.00018613
0.000221959
0.000196957
0.000189202
0.000179662
0.000187776
0.000164127
0.000188463
0.000138885
0.000188779
0.000128878
0.000182147
0.000127958
0.000167877
0.000119689
0.000144236
0.000121288
0.000131075
0.000131356
0.000140088
0.000149823
0.000158455
0.000175185
0.000173001
0.000184393
0.000165905
0.000179257
0.000149919
0.000189769
0.000136274
0.000206744
0.000131325
0.000258043
0.000142013
0.000306523
0.000184909
0.000348905
0.000223293
0.000353888
0.000293109
0.000419724
0.000393758
0.000572794
0.000613681
0.000932925
0.000933933
0.0011421
0.0012938
0.0096151
0.216732
0.000334822
0.000366149
0.000751355
0.000411758
0.000476311
0.000403029
0.000275382
0.00020607
0.000254917
0.000168104
0.000236806
0.000140423
0.00021671
0.000110593
0.000201522
0.00010845
0.000186081
0.000114304
0.000187778
0.000115005
0.000186767
0.000120506
0.000185398
0.000124744
0.000157535
0.000130808
0.000142921
0.000136211
0.000131661
0.000145414
0.000126938
0.000164696
0.000149568
0.000182142
0.000168437
0.000185082
0.000164655
0.000183216
0.000150811
0.00017398
0.00013891
0.000199756
0.000127337
0.000239227
0.000148854
0.000289385
0.000182341
0.00033346
0.000210794
0.000376264
0.000264663
0.000425702
0.000368892
0.000645829
0.000570291
0.000950857
0.00105926
0.00108763
0.00122347
0.00962677
0.212374
0.000250131
0.000466437
0.000412608
0.000763238
0.000269971
0.000562388
0.000212173
0.000352266
0.000283976
0.000261845
0.000170438
0.000228677
0.00018055
0.000203413
0.000163398
0.000176778
0.000157504
0.000178017
0.000151597
0.000179287
0.000136155
0.000185696
0.000124917
0.000175792
0.000126506
0.00016607
0.0001207
0.000140187
0.000118722
0.000129825
0.00013118
0.000133023
0.000148748
0.000153193
0.000175125
0.000169403
0.000183355
0.000165421
0.00017798
0.000151594
0.000187538
0.000138717
0.000208412
0.000130002
0.000258904
0.000142559
0.000307195
0.000184565
0.000353869
0.000222301
0.000357036
0.000293851
0.00041939
0.000393977
0.000572158
0.000611846
0.000934728
0.000922311
0.00119735
0.00125196
0.00893001
0.214464
0.000344419
0.000377358
0.00072965
0.000427343
0.000451482
0.000401585
0.000273313
0.00020086
0.000245573
0.000163996
0.000224387
0.000143975
0.000210561
0.000112278
0.000181752
0.00010388
0.000184103
0.000111607
0.000178668
0.000108461
0.000184775
0.000110467
0.000174187
0.000117192
0.000174848
0.000119723
0.000152708
0.00012665
0.000141055
0.000132693
0.000127666
0.000143285
0.000125691
0.00016482
0.000149168
0.000179672
0.000167633
0.000184597
0.00016504
0.000182952
0.000153382
0.000174245
0.000137557
0.000199977
0.000128597
0.000242471
0.000150222
0.00028969
0.000181243
0.000330627
0.000209286
0.000374008
0.000268877
0.000429365
0.000374953
0.00064579
0.000573053
0.000952127
0.0010463
0.00101759
0.00118303
0.00897605
0.210308
0.000254582
0.000450749
0.000413957
0.00071595
0.000256317
0.000525831
0.000192514
0.000346349
0.000280108
0.00027606
0.000162744
0.000234729
0.000154182
0.000204983
0.000166097
0.000191949
0.000151431
0.000175854
0.000151474
0.000171307
0.000143093
0.000174768
0.000133289
0.000184334
0.000121401
0.000174407
0.000124679
0.000163214
0.000118804
0.000137445
0.000118489
0.000126989
0.000130903
0.000129779
0.000148282
0.000151793
0.000174984
0.000167568
0.000182868
0.00016476
0.000179779
0.000153399
0.000187553
0.000139482
0.000209319
0.00012957
0.000261447
0.000145093
0.000307281
0.000184746
0.000350459
0.000221792
0.000359243
0.000295474
0.000417453
0.000398434
0.000570027
0.000606169
0.000938151
0.00092014
0.00114803
0.00125121
0.0095508
0.212296
0.000346642
0.000389154
0.000702768
0.000444206
0.000422459
0.000385116
0.000267898
0.000192611
0.000237806
0.000163218
0.000215686
0.000144519
0.000207098
0.000128169
0.000187726
0.000101326
0.00016372
0.000103043
0.00016149
0.000105707
0.000168424
0.000107685
0.000173068
0.000113391
0.00016462
0.000114852
0.000163793
0.000118201
0.000151333
0.000124729
0.000139752
0.000129532
0.000125712
0.000141119
0.000123887
0.000162733
0.000147086
0.000177895
0.000166185
0.000185994
0.000164351
0.000182564
0.0001551
0.000177864
0.000138834
0.000203622
0.000129231
0.000241474
0.000147833
0.000291208
0.000180024
0.000339459
0.000210109
0.000374336
0.000274476
0.000428787
0.000380149
0.000643437
0.000573647
0.000948802
0.00103521
0.000992229
0.00131176
0.00960694
0.208368
0.000261485
0.000462169
0.0004332
0.000678486
0.000253345
0.000500288
0.000173427
0.000337436
0.000280068
0.000283791
0.000162465
0.000244259
0.000142981
0.000207825
0.000142921
0.000190283
0.00014392
0.000176462
0.000139893
0.000167321
0.000143778
0.000163834
0.000135295
0.000172376
0.000131506
0.000186609
0.000120557
0.000173569
0.000123839
0.000160819
0.000116416
0.000137361
0.000117821
0.000123362
0.000129657
0.000127617
0.000148916
0.000150058
0.000174096
0.000167299
0.000182717
0.000164901
0.000180316
0.000153688
0.000188625
0.000138873
0.000211729
0.000129354
0.000261746
0.000147288
0.000309403
0.000184181
0.000351288
0.00022156
0.000358282
0.000299139
0.000417778
0.000400543
0.000569295
0.00059653
0.000954784
0.000922353
0.00124426
0.00134055
0.00879749
0.210127
0.000350471
0.000413033
0.000663897
0.000464009
0.000389144
0.000372791
0.000260476
0.00018648
0.000244064
0.000169639
0.000204757
0.00013751
0.000194026
0.00012726
0.000185818
0.000110735
0.00015992
0.000101316
0.000159947
9.67489e-05
0.00015739
9.80095e-05
0.000161815
0.000109402
0.000159179
0.000112204
0.000157868
0.000117887
0.000159114
0.000117752
0.00014695
0.000122583
0.000135955
0.000125994
0.000124652
0.000139172
0.000123194
0.000160983
0.000147281
0.000176396
0.00016589
0.000185236
0.000164128
0.00018411
0.000156154
0.000179796
0.000139773
0.000204831
0.00012997
0.000245479
0.000143235
0.000292271
0.000178483
0.000342452
0.000211943
0.000374605
0.000278221
0.000429792
0.00038669
0.000642852
0.000565332
0.00093821
0.00102749
0.00102691
0.00126249
0.00889037
0.20616
0.000267046
0.000484333
0.000450198
0.000653101
0.000252451
0.000486329
0.000160396
0.000329084
0.000275974
0.00028239
0.000159761
0.000257948
0.000146911
0.000209924
0.000134667
0.000181976
0.000131394
0.000183379
0.000123087
0.000169508
0.000134476
0.000164373
0.000135758
0.000159328
0.000132304
0.000173955
0.000125961
0.000176358
0.00012022
0.000171444
0.000121868
0.000158027
0.000114964
0.000134916
0.000116131
0.000123152
0.000127664
0.000125483
0.000148352
0.000148916
0.000172534
0.000166504
0.000183235
0.000165532
0.000182236
0.000155347
0.000189758
0.000138512
0.000210039
0.000129497
0.000261473
0.000143006
0.000311308
0.000181656
0.000352463
0.00022088
0.000360074
0.000304417
0.000417955
0.000404839
0.000572357
0.000581268
0.000959919
0.000920363
0.00116542
0.00129681
0.00811375
0.207598
0.000351579
0.000432185
0.000673204
0.000475761
0.0003588
0.000357589
0.000258399
0.000183201
0.000255254
0.000174748
0.000206578
0.000149031
0.000185129
0.000132422
0.000181761
0.000120949
0.000171004
0.000103571
0.000148046
9.42494e-05
0.00015846
9.48265e-05
0.000148921
9.69262e-05
0.000156855
0.000108996
0.000154067
0.000114173
0.000151252
0.00011763
0.000158668
0.000118949
0.000147049
0.000120435
0.000134153
0.000121439
0.000123405
0.000136949
0.000122421
0.000159175
0.000145234
0.000175274
0.000164572
0.000184806
0.00016424
0.000185337
0.000156942
0.000182139
0.0001413
0.000208296
0.000131233
0.000247434
0.000147693
0.000294035
0.000178574
0.000341349
0.000214569
0.000374401
0.000284231
0.000430811
0.000392734
0.000642966
0.000544641
0.000939677
0.00101678
0.000965226
0.00119826
0.00824119
0.203635
0.000280903
0.000501133
0.000462546
0.00064052
0.000251416
0.00047676
0.000152017
0.000324593
0.000277127
0.000282835
0.000170845
0.000249222
0.000150305
0.000213486
0.000140015
0.000189966
0.000125193
0.00016147
0.000117458
0.000171313
0.000115357
0.000153872
0.00012464
0.000159912
0.000131897
0.000155939
0.000130173
0.000168561
0.000126271
0.000175214
0.00011933
0.000168329
0.000119835
0.000156795
0.00011368
0.000134356
0.000114871
0.000120514
0.000127497
0.000124062
0.00014765
0.000145294
0.000172915
0.000165097
0.000183427
0.000166716
0.00018339
0.000155157
0.000192743
0.00013793
0.000213593
0.000130142
0.000262621
0.000142837
0.000312504
0.000179832
0.000352599
0.000221007
0.000363392
0.00030971
0.000420072
0.000408941
0.000575615
0.000567135
0.000964765
0.00091406
0.00113072
0.00125153
0.00754604
0.205112
0.000353663
0.000459237
0.000634895
0.000479306
0.000333607