/*--------------------------------*- C++ -*----------------------------------*\
| =========                 |                                                 |
| \\      /  F ield         | OpenFOAM: The Open Source CFD Toolbox           |
|  \\    /   O peration     | Version:  2206                                  |
|   \\  /    A nd           | Website:  www.openfoam.com                      |
|    \\/     M anipulation  |                                                 |
\*---------------------------------------------------------------------------*/
FoamFile
{
    version     2.0;
    format      ascii;
    arch        "LSB;label=32;scalar=64";
    class       volVectorField;
    location    "210";
    object      rhoUMean;
}
// * * * * * * * * * * * * * * * * * * * * * * * * * * * * * * * * * * * * * //

dimensions      [1 -2 -1 0 0 0 0];

internalField   nonuniform List<vector> 
93840
(
(1.75066 -2.12351 1.32598e-17)
(0.417383 0.224771 3.95672e-18)
(1.58737 -2.10922 1.17528e-17)
(0.724722 -0.532723 4.70492e-18)
(0.441869 0.228989 3.77973e-18)
(1.39522 -1.82591 7.1194e-18)
(0.682413 0.263363 2.88952e-17)
(0.742988 -0.125108 1.38752e-17)
(0.544207 0.247107 2.16564e-18)
(1.28064 -1.3405 1.06676e-17)
(0.999354 -0.10894 -7.14607e-18)
(0.797774 0.0705949 5.95852e-17)
(0.893836 -0.120819 3.0167e-17)
(0.7256 0.249699 -4.73972e-17)
(1.25141 -1.00047 -1.61808e-17)
(0.857141 0.0400497 -1.39343e-16)
(0.835576 -0.0368647 -2.33933e-17)
(0.550457 0.0730796 2.0676e-17)
(0.849793 -0.309365 4.7251e-17)
(0.768276 0.162766 -6.08957e-17)
(1.2192 -0.847073 7.49798e-18)
(0.854375 -0.0180998 -1.97088e-17)
(0.841731 0.0710007 -1.52325e-16)
(0.856406 -0.0221271 -4.60652e-17)
(0.739335 0.216726 1.88625e-17)
(0.586239 -0.169845 3.37223e-17)
(0.716954 0.10993 4.58081e-17)
(1.23015 -0.903302 -2.36599e-18)
(0.815113 0.0381247 6.03587e-17)
(0.835177 -0.0345563 1.12552e-17)
(0.865245 0.0810572 -1.32339e-16)
(0.901972 -0.0624764 -7.85123e-17)
(0.760357 0.156775 6.66668e-17)
(0.767781 -0.122148 -3.28762e-17)
(0.726934 0.133222 -3.82325e-17)
(1.19983 -0.924605 -1.80473e-17)
(0.853435 -0.0167687 7.97111e-17)
(0.82409 0.0685007 7.31075e-17)
(0.814915 -0.0190996 8.40256e-18)
(0.830825 0.0434067 -1.41907e-16)
(0.838998 -0.0571419 -1.65963e-16)
(0.839076 0.1311 -3.5405e-17)
(0.763307 -0.0185378 -4.35788e-17)
(0.713462 0.140281 3.52544e-17)
(1.18109 -0.929867 4.68853e-18)
(0.83897 0.0389253 -1.14826e-17)
(0.854532 -0.0226389 6.87878e-17)
(0.819774 0.0727704 9.12756e-17)
(0.761044 0.00151566 1.40787e-16)
(0.812923 0.0441915 9.00318e-17)
(0.833809 -0.0115943 -4.41198e-17)
(0.7914 0.0227695 8.14096e-17)
(0.79638 -0.0362186 1.17213e-17)
(0.723283 0.139254 -2.75202e-17)
(1.15829 -0.928807 -6.04142e-18)
(0.860442 -0.0155386 1.41391e-16)
(0.858891 0.0549835 -3.49518e-18)
(0.826741 -0.0166004 4.76427e-17)
(0.819023 0.0406526 7.45673e-17)
(0.796198 -0.0163435 6.20253e-17)
(0.830887 0.0245772 4.01139e-17)
(0.784984 0.0183939 -7.19876e-17)
(0.803422 0.050769 -4.31819e-17)
(0.812978 -0.0250871 -4.51712e-17)
(0.715569 0.143784 1.85139e-17)
(1.14964 -0.934063 -5.32308e-19)
(0.840168 0.0392187 -1.11158e-16)
(0.859777 -0.0149897 1.19308e-16)
(0.8484 0.0667506 -8.86555e-18)
(0.826584 0.00674459 2.55364e-17)
(0.845884 0.0459471 3.36032e-17)
(0.802104 0.0180115 -1.03951e-16)
(0.803506 0.0228312 -1.11216e-17)
(0.81623 0.0202045 -6.92531e-17)
(0.796847 0.026008 6.39442e-17)
(0.812148 -0.0254172 3.36313e-18)
(0.722087 0.142286 -2.19404e-17)
(1.13201 -0.921628 -3.01421e-18)
(0.835932 -0.0141989 -5.18238e-18)
(0.854258 0.0541394 -1.40596e-16)
(0.83856 -0.0115603 1.03772e-16)
(0.865394 0.0359063 2.29997e-17)
(0.845302 -0.00447969 1.06803e-17)
(0.857815 0.0276939 3.41733e-17)
(0.828239 0.0161877 1.42791e-16)
(0.837248 0.0358441 1.02579e-16)
(0.791189 0.0176899 -4.52757e-17)
(0.801056 0.0410573 -3.2811e-17)
(0.818666 -0.0202159 -3.54724e-17)
(0.718304 0.146201 1.153e-17)
(1.12724 -0.928171 -2.4976e-18)
(0.824533 0.0392211 -1.3786e-16)
(0.832326 -0.0132834 -1.29802e-17)
(0.848824 0.0614626 -1.34704e-16)
(0.826969 0.0090548 8.2989e-17)
(0.844625 0.0350916 2.97987e-17)
(0.817404 0.0172163 2.83361e-17)
(0.845751 0.0279266 -4.39317e-17)
(0.828763 0.0283302 -1.06289e-16)
(0.803836 0.0244658 -4.54824e-18)
(0.821161 0.0172037 -7.85816e-17)
(0.801331 0.0299627 5.00507e-17)
(0.816645 -0.0195456 4.43759e-18)
(0.723068 0.142101 -1.89093e-17)
(1.11128 -0.91441 -3.14055e-18)
(0.834777 -0.0129201 9.56485e-18)
(0.840813 0.0535297 -1.48852e-16)
(0.82364 -0.00806092 -1.23462e-17)
(0.852755 0.035361 -2.25851e-16)
(0.83386 0.00121672 -1.51131e-16)
(0.859798 0.0276696 -8.25423e-17)
(0.846829 0.0153577 -7.53134e-17)
(0.860823 0.0353808 -2.43752e-17)
(0.833238 0.0194039 8.27376e-17)
(0.838998 0.0397454 1.19175e-16)
(0.796713 0.0181055 -3.24126e-17)
(0.800733 0.0404147 -2.3541e-17)
(0.821293 -0.0159589 -3.50026e-17)
(0.720071 0.145615 8.16141e-18)
(1.10988 -0.92103 -2.24233e-18)
(0.827375 0.0394667 4.41129e-17)
(0.829461 -0.0111129 5.6115e-17)
(0.84014 0.0581922 -1.30735e-16)
(0.808287 0.00887393 1.71695e-17)
(0.835335 0.0323939 -8.71223e-17)
(0.818951 0.0178235 -2.38291e-17)
(0.843785 0.0285813 8.1018e-17)
(0.82098 0.0264596 5.53717e-17)
(0.841144 0.0248816 -1.01487e-17)
(0.836912 0.0255543 -1.02537e-16)
(0.80846 0.0263589 -3.83051e-18)
(0.821187 0.0165423 -8.2348e-17)
(0.803681 0.0315116 4.0198e-17)
(0.819144 -0.0158727 2.57697e-18)
(0.723951 0.141915 -1.70747e-17)
(1.09446 -0.906429 -3.18368e-18)
(0.84224 -0.0117266 1.08134e-16)
(0.842991 0.0531771 8.63381e-17)
(0.826354 -0.00553012 9.40449e-17)
(0.844908 0.035701 -1.33414e-16)
(0.827444 0.00355552 4.06675e-17)
(0.850956 0.0279776 1.03037e-16)
(0.831602 0.0140641 1.07604e-16)
(0.850433 0.0345145 -4.94426e-18)
(0.844428 0.0177571 -5.50345e-17)
(0.859832 0.0378199 -3.56569e-17)
(0.835963 0.0196463 5.89732e-17)
(0.840531 0.0424603 1.2183e-16)
(0.801617 0.0187454 -2.26401e-17)
(0.800422 0.0403074 -1.8201e-17)
(0.823039 -0.0125303 -3.51082e-17)
(0.721517 0.145116 4.79693e-18)
(1.09559 -0.913307 -1.44331e-18)
(0.834333 0.0391726 -3.47723e-17)
(0.835151 -0.00883041 9.75859e-17)
(0.844682 0.0557375 8.60575e-17)
(0.81489 0.00926485 1.77766e-16)
(0.842101 0.0328967 5.33031e-17)
(0.821869 0.0187791 -8.02013e-17)
(0.839185 0.0285974 -2.30467e-16)
(0.819549 0.0250472 -1.35771e-16)
(0.841649 0.0281221 3.91562e-17)
(0.824449 0.0280592 6.02727e-17)
(0.840471 0.0246875 7.93447e-18)
(0.841024 0.0252687 -9.27972e-17)
(0.811806 0.0280962 -2.08458e-19)
(0.820417 0.0170711 -8.41741e-17)
(0.805093 0.0329719 3.39599e-17)
(0.821352 -0.0131874 2.43922e-18)
(0.724723 0.141959 -1.56693e-17)
(1.08043 -0.898274 -4.81346e-18)
(0.851526 -0.0106866 2.94686e-17)
(0.847881 0.052529 -3.95341e-17)
(0.833285 -0.00317086 6.93722e-17)
(0.848146 0.0365912 1.13698e-16)
(0.838042 0.00598015 1.75011e-16)
(0.85608 0.0290751 -2.6558e-17)
(0.83785 0.0141906 2.67742e-17)
(0.852972 0.0349833 6.36966e-17)
(0.833414 0.0163907 1.36721e-16)
(0.847486 0.0357646 2.49985e-17)
(0.842287 0.0179642 -4.67203e-17)
(0.859279 0.0389154 -4.45863e-17)
(0.837328 0.0196352 3.57904e-17)
(0.841308 0.0435874 1.24829e-16)
(0.806043 0.0198567 -1.76597e-17)
(0.800248 0.0407254 -1.73493e-17)
(0.824791 -0.0103202 -3.41491e-17)
(0.722808 0.144742 2.53012e-18)
(1.08337 -0.905229 -2.14092e-18)
(0.838204 0.0389322 -7.85951e-17)
(0.842734 -0.00674278 1.29841e-17)
(0.848355 0.0530626 -5.08225e-17)
(0.819832 0.00966613 2.1591e-17)
(0.84605 0.0328773 -9.83541e-18)
(0.824502 0.0195869 -9.17162e-17)
(0.845582 0.0290685 4.88098e-17)
(0.828118 0.0251997 -1.86422e-17)
(0.841026 0.0290023 -2.1172e-16)
(0.820787 0.026973 -1.76121e-16)
(0.841013 0.0279843 1.07284e-17)
(0.826678 0.0294374 5.92421e-17)
(0.839323 0.0262466 1.75755e-17)
(0.844435 0.0251495 -8.40051e-17)
(0.814616 0.0296339 3.54372e-18)
(0.820369 0.0168782 -8.49806e-17)
(0.805207 0.0343723 3.08498e-17)
(0.82339 -0.0114467 1.03479e-18)
(0.725453 0.142068 -1.46557e-17)
(1.06835 -0.889822 -6.4489e-18)
(0.859843 -0.00999059 -1.26235e-16)
(0.853178 0.0519395 -1.23934e-16)
(0.840424 -0.000472576 -2.11265e-17)
(0.852276 0.0370431 -7.044e-17)
(0.842421 0.00823229 -6.46401e-17)
(0.854994 0.0297773 1.15204e-16)
(0.841707 0.0147631 2.96679e-16)
(0.858337 0.0345484 1.64339e-16)
(0.839344 0.0156694 4.08402e-17)
(0.853472 0.0359748 4.28287e-17)
(0.834565 0.0170902 1.34914e-16)
(0.846159 0.0365455 4.17897e-17)
(0.840629 0.0185119 -3.70561e-17)
(0.858809 0.0402261 -4.75004e-17)
(0.838517 0.0201929 1.82686e-17)
(0.842142 0.0442685 1.26749e-16)
(0.809537 0.0209536 -1.31879e-17)
(0.799603 0.0410938 -1.28746e-17)
(0.826371 -0.00888539 -3.1208e-17)
(0.723992 0.144593 9.27759e-21)
(1.07276 -0.896462 -7.46202e-19)
(0.844904 0.0393676 2.97426e-16)
(0.853735 -0.00463946 -4.32611e-17)
(0.853301 0.0509268 -1.02582e-16)
(0.828091 0.0103201 -5.53932e-17)
(0.853012 0.0332152 -1.08205e-16)
(0.833093 0.0205838 -5.78151e-17)
(0.854974 0.0291477 -8.34911e-17)
(0.831491 0.0255603 -1.6702e-16)
(0.846748 0.0295356 3.55018e-17)
(0.829688 0.0277081 2.07994e-17)
(0.842021 0.0293716 -1.84809e-16)
(0.822091 0.028054 -1.9063e-16)
(0.840221 0.0280353 -9.22202e-18)
(0.828531 0.0301209 5.47604e-17)
(0.838664 0.0273501 2.25274e-17)
(0.845715 0.0250084 -8.01265e-17)
(0.817012 0.0317637 5.80642e-18)
(0.820699 0.0170937 -8.52975e-17)
(0.805925 0.0358128 2.50427e-17)
(0.825384 -0.0106645 3.58267e-19)
(0.726126 0.142108 -1.48119e-17)
(1.05766 -0.881018 -5.92936e-18)
(0.866733 -0.0091156 -3.43427e-16)
(0.862813 0.0513447 2.25187e-16)
(0.852306 0.00184528 -1.55541e-17)
(0.860822 0.0376505 -1.33576e-16)
(0.85183 0.00995921 3.58352e-17)
(0.86283 0.0304885 1.49678e-20)
(0.852284 0.0155178 -7.71203e-17)
(0.861635 0.0340608 -1.08544e-16)
(0.84268 0.0159657 2.02368e-16)
(0.859238 0.0352544 1.89472e-16)
(0.839905 0.0166859 5.9271e-17)
(0.853423 0.0368049 3.30711e-17)
(0.835276 0.0182724 1.26649e-16)
(0.845306 0.0370712 5.2419e-17)
(0.838744 0.0185753 -2.71521e-17)
(0.858046 0.0411394 -4.64786e-17)
(0.839637 0.0206985 6.54679e-18)
(0.842229 0.0444877 1.27203e-16)
(0.812179 0.0219036 -9.44682e-18)
(0.799386 0.0420549 -1.14152e-17)
(0.828023 -0.0082741 -3.20704e-17)
(0.724892 0.144686 -1.24377e-18)
(1.06362 -0.887542 -1.81932e-18)
(0.852528 0.0397795 5.981e-17)
(0.864379 -0.00261846 -3.99104e-16)
(0.861527 0.049149 1.86783e-16)
(0.843939 0.011251 8.52449e-17)
(0.864112 0.0336726 1.73547e-17)
(0.845011 0.0213314 7.34209e-17)
(0.863433 0.0292076 -9.25312e-17)
(0.839752 0.0261247 -6.08084e-17)
(0.857558 0.0298802 -3.94833e-17)
(0.833749 0.0284074 -1.77663e-16)
(0.847528 0.0297977 9.99898e-18)
(0.831346 0.0289903 4.19761e-17)
(0.842124 0.0293044 -1.63935e-16)
(0.823607 0.0290156 -1.92037e-16)
(0.839626 0.028507 -2.40313e-17)
(0.830397 0.0304631 4.90029e-17)
(0.838374 0.0284195 2.65784e-17)
(0.846882 0.0250394 -7.68482e-17)
(0.819314 0.0335456 9.27318e-18)
(0.820879 0.0169603 -8.45205e-17)
(0.805637 0.0373691 2.21452e-17)
(0.827122 -0.0105768 1.90078e-19)
(0.726631 0.14234 -1.38187e-17)
(1.04845 -0.871759 -1.24327e-18)
(0.870978 -0.00793778 2.17597e-17)
(0.870045 0.0507507 1.73591e-16)
(0.863504 0.00369131 -3.35631e-16)
(0.87068 0.0379043 1.48395e-16)
(0.862903 0.0112925 8.79212e-17)
(0.872492 0.0311284 -8.25701e-17)
(0.86312 0.0162762 -1.54533e-16)
(0.870332 0.0340366 -4.44351e-17)
(0.85535 0.0164589 -6.96264e-17)
(0.863828 0.0337742 -1.53253e-16)
(0.842307 0.017314 1.37522e-16)
(0.858129 0.0343901 1.94931e-16)
(0.840833 0.017786 7.05258e-17)
(0.85333 0.0364645 2.57827e-17)
(0.835174 0.0194138 1.11843e-16)
(0.843735 0.0363133 5.82688e-17)
(0.836807 0.0191043 -1.64261e-17)
(0.856332 0.0415967 -4.32409e-17)
(0.84066 0.0208609 -4.80312e-18)
(0.841848 0.044626 1.24226e-16)
(0.814684 0.022352 -6.53696e-18)
(0.799334 0.0432339 -9.20597e-18)
(0.829675 -0.0084691 -3.29932e-17)
(0.725759 0.144548 -3.03255e-18)
(1.05092 -0.873211 -6.71162e-18)
(0.851122 0.0400985 9.49825e-17)
(0.865831 -0.000659886 -2.98689e-18)
(0.865149 0.0478157 1.80068e-16)
(0.857676 0.0124865 -4.23737e-16)
(0.872299 0.033751 -1.66135e-16)
(0.855122 0.0221072 -1.00597e-16)
(0.873389 0.0292685 -4.73234e-17)
(0.852926 0.0269451 1.06145e-16)
(0.867732 0.0307307 -4.07602e-17)
(0.842437 0.0284196 -6.34682e-17)
(0.858245 0.0291985 -2.46443e-17)
(0.83781 0.0301041 -1.57594e-16)
(0.847545 0.0300803 -1.58138e-18)
(0.832564 0.0299915 5.60407e-17)
(0.842769 0.0299598 -1.44661e-16)
(0.825694 0.029135 -1.82929e-16)
(0.840514 0.0301261 -3.28032e-17)
(0.832497 0.0304689 4.16561e-17)
(0.839242 0.0302742 2.6208e-17)
(0.847389 0.024984 -7.01948e-17)
(0.821757 0.035406 1.41042e-17)
(0.821234 0.0172972 -8.45619e-17)
(0.80552 0.0390579 1.93613e-17)
(0.828772 -0.0111765 -1.74523e-18)
(0.727169 0.141846 -1.36068e-17)
(1.04622 -0.869889 -1.72882e-18)
(0.864845 -0.00691047 2.59428e-16)
(0.864976 0.0496734 1.53517e-16)
(0.861528 0.00557582 -1.32758e-17)
(0.873054 0.0373444 3.4145e-16)
(0.864889 0.012188 -8.10355e-17)
(0.873359 0.03125 -9.80126e-19)
(0.863512 0.0167598 1.89677e-16)
(0.872472 0.0330124 2.78123e-16)
(0.863088 0.0167299 -3.79878e-17)
(0.871568 0.0339436 -3.52498e-17)
(0.856587 0.018096 -5.58501e-17)
(0.864171 0.0338935 -1.73501e-16)
(0.842634 0.0182993 9.41208e-17)
(0.858118 0.0340652 1.9091e-16)
(0.839825 0.0198223 8.12584e-17)
(0.852593 0.0361041 1.74919e-17)
(0.835363 0.0208791 9.60549e-17)
(0.84297 0.0366793 6.18454e-17)
(0.835454 0.0193692 -5.96988e-18)
(0.853266 0.0409655 -3.66301e-17)
(0.84168 0.0211131 -1.80113e-17)
(0.840855 0.0449539 1.20567e-16)
(0.816642 0.0226294 -3.46934e-18)
(0.799569 0.0444988 -7.46425e-18)
(0.831327 -0.00937029 -2.91283e-17)
(0.725173 0.144486 -4.52172e-18)
(1.04407 -0.866936 -6.21287e-18)
(0.84357 0.0402229 -5.31004e-16)
(0.857337 0.00130264 9.15944e-17)
(0.860805 0.046336 1.46957e-16)
(0.858012 0.0138656 -2.47947e-17)
(0.867549 0.0331954 3.60377e-16)
(0.852578 0.0224977 3.69252e-16)
(0.868808 0.0287524 3.1542e-16)
(0.851074 0.0275534 7.88618e-17)
(0.872885 0.0306953 -4.1391e-17)
(0.853995 0.0291413 1.04241e-16)
(0.869453 0.0308213 -1.62677e-17)
(0.844596 0.0297807 -6.28214e-17)
(0.858496 0.0295665 -1.82589e-17)
(0.838953 0.0307298 -1.50398e-16)
(0.848008 0.0301888 -7.86978e-18)
(0.835318 0.0295421 6.57749e-17)
(0.843377 0.0304197 -1.28226e-16)
(0.826487 0.0292734 -1.78673e-16)
(0.839815 0.0306065 -3.89434e-17)
(0.833788 0.0300115 3.42109e-17)
(0.841408 0.0323696 2.41383e-17)
(0.847887 0.025104 -6.77842e-17)
(0.8247 0.0369151 1.97637e-17)
(0.821512 0.0177169 -8.28796e-17)
(0.805516 0.0412886 1.73474e-17)
(0.83094 -0.012177 -2.85392e-18)
(0.725243 0.145514 -1.18634e-17)
(1.03878 -0.859355 -2.40967e-18)
(0.854983 -0.00585782 3.74803e-16)
(0.856687 0.0486986 -4.95658e-16)
(0.855396 0.00699378 -2.62676e-17)
(0.866168 0.0367969 1.38792e-16)
(0.858251 0.0128204 -1.65347e-16)
(0.867051 0.0311796 -2.13712e-16)
(0.85783 0.0171745 -3.3208e-16)
(0.869183 0.0324194 -4.15148e-16)
(0.862113 0.016778 -1.02303e-16)
(0.872231 0.0325857 2.62773e-16)
(0.862574 0.018397 1.06449e-17)
(0.871561 0.0337135 -2.79453e-17)
(0.857089 0.018914 -4.33174e-17)
(0.865219 0.0339255 -1.79894e-16)
(0.842933 0.0203875 5.41265e-17)
(0.857413 0.0341526 1.84781e-16)
(0.83962 0.0206466 9.01013e-17)
(0.852183 0.0355162 9.81978e-18)
(0.835771 0.0216424 8.47164e-17)
(0.843023 0.0376392 6.04097e-17)
(0.834819 0.0199877 1.4017e-18)
(0.851997 0.0414919 -3.04455e-17)
(0.842326 0.0214487 -2.5766e-17)
(0.840656 0.0450699 1.16916e-16)
(0.817918 0.0227743 9.23349e-19)
(0.799793 0.0458922 -5.52736e-18)
(0.833325 -0.0121971 -2.79992e-17)
(0.725627 0.146943 -7.20278e-18)
(1.03709 -0.856445 -5.80326e-18)
(0.83384 0.0401597 2.33507e-17)
(0.845238 0.0027295 5.55421e-16)
(0.851825 0.045127 -3.54507e-16)
(0.848164 0.0154295 -1.60847e-16)
(0.857519 0.0325288 3.8039e-17)
(0.846857 0.0230229 1.30554e-16)
(0.862535 0.028413 9.47915e-17)
(0.847274 0.0279308 1.64692e-16)
(0.867354 0.0306923 3.54371e-16)
(0.850214 0.0292364 1.67486e-16)
(0.87218 0.0303224 -3.16461e-17)
(0.855218 0.029627 9.84766e-17)
(0.869984 0.0306983 -2.27395e-18)
(0.84608 0.0305718 -6.19568e-17)
(0.858865 0.0296551 -1.55528e-17)
(0.840578 0.0299889 -1.37116e-16)
(0.848305 0.0303158 -1.45387e-17)
(0.835934 0.029949 7.1223e-17)
(0.844167 0.0311118 -1.10732e-16)
(0.827242 0.0294652 -1.7072e-16)
(0.839297 0.0311456 -4.19016e-17)
(0.834127 0.0293736 2.93178e-17)
(0.841503 0.0333741 2.47046e-17)
(0.847884 0.0252138 -6.61771e-17)
(0.82691 0.0382847 2.44289e-17)
(0.821671 0.0179231 -8.42685e-17)
(0.805905 0.0440368 1.4417e-17)
(0.831684 -0.0144727 -2.88009e-18)
(0.726298 0.146453 -1.22243e-17)
(1.03271 -0.849061 -2.87215e-18)
(0.844868 -0.00504274 -2.93983e-16)
(0.842665 0.0479551 -1.90299e-16)
(0.841769 0.00780563 5.16759e-16)
(0.854626 0.0357746 -3.16215e-16)
(0.850524 0.013404 -4.50656e-16)
(0.859959 0.0312398 -4.37358e-16)
(0.851175 0.0177431 -4.3508e-16)
(0.862467 0.0317278 -3.08698e-16)
(0.854799 0.0164296 -3.31059e-16)
(0.867425 0.0318335 -4.68604e-16)
(0.860756 0.0183899 -2.03553e-16)
(0.871673 0.0326455 2.34116e-16)
(0.862512 0.0193956 3.62752e-17)
(0.87193 0.033271 -1.98841e-17)
(0.856753 0.0199991 -3.35233e-17)
(0.865474 0.0340782 -1.80401e-16)
(0.843422 0.0209468 2.78034e-17)
(0.857375 0.0341239 1.77456e-16)
(0.839663 0.021428 9.79182e-17)
(0.850511 0.0349121 -2.6799e-18)
(0.83571 0.0220137 6.18148e-17)
(0.842839 0.0381816 5.64333e-17)
(0.834619 0.0203474 5.89658e-18)
(0.85135 0.0418401 -2.57664e-17)
(0.842484 0.0220076 -3.35801e-17)
(0.839665 0.0450846 1.09071e-16)
(0.81906 0.0228768 -2.30978e-19)
(0.800368 0.0481719 -4.00617e-18)
(0.83412 -0.0149178 -2.77193e-17)
(0.726617 0.14758 -6.26346e-18)
(1.03155 -0.846288 -5.55451e-18)
(0.828837 0.0399811 3.82744e-16)
(0.835125 0.00393155 -1.82547e-16)
(0.839822 0.0441588 -2.69175e-16)
(0.835207 0.016862 6.55648e-16)
(0.847222 0.0319636 3.04863e-16)
(0.838277 0.0236808 1.28429e-16)
(0.851014 0.0281577 1.70372e-16)
(0.836894 0.0283018 3.29781e-16)
(0.858504 0.0304605 2.33866e-16)
(0.845444 0.0291198 1.46888e-16)
(0.866758 0.0304004 3.44208e-16)
(0.850162 0.0301195 1.97735e-16)
(0.871433 0.0307251 -1.84491e-17)
(0.855549 0.0301103 9.66579e-17)
(0.870473 0.030631 6.92299e-18)
(0.847971 0.0308464 -5.90477e-17)
(0.859206 0.029957 -1.52546e-17)
(0.841406 0.0303411 -1.31782e-16)
(0.848733 0.030457 -1.85575e-17)
(0.836614 0.0298226 7.99065e-17)
(0.846588 0.031874 -8.91209e-17)
(0.828591 0.0294583 -1.52831e-16)
(0.838901 0.0318092 -4.43209e-17)
(0.834089 0.0292245 2.56064e-17)
(0.841877 0.0339633 2.44683e-17)
(0.848068 0.0252456 -6.32003e-17)
(0.829666 0.0397925 3.25779e-17)
(0.821903 0.0181218 -7.80437e-17)
(0.806283 0.0467222 1.47233e-17)
(0.832049 -0.0172808 -3.10173e-18)
(0.726438 0.148469 -1.40532e-17)
(1.02778 -0.83875 -3.27639e-18)
(0.839811 -0.00426918 -3.13027e-16)
(0.833977 0.0464731 4.04508e-16)
(0.831723 0.00888291 -1.68147e-17)
(0.841995 0.0358615 -4.39347e-16)
(0.840041 0.014092 4.43146e-16)
(0.848569 0.0312817 3.87912e-16)
(0.838835 0.0182195 4.48118e-16)
(0.850332 0.0310061 1.34294e-16)
(0.845311 0.0164542 -2.6765e-16)
(0.860477 0.0317363 -2.84064e-16)
(0.853436 0.017935 -2.95919e-16)
(0.866111 0.0319489 -4.50115e-16)
(0.859902 0.019131 -2.47656e-16)
(0.871349 0.0327089 2.05859e-16)
(0.861991 0.0202598 5.22729e-17)
(0.872013 0.0329147 -1.38136e-17)
(0.856827 0.020616 -2.53164e-17)
(0.865563 0.0339364 -1.77003e-16)
(0.843777 0.0216394 4.58682e-18)
(0.856989 0.0340358 1.67945e-16)
(0.839948 0.0226381 1.01065e-16)
(0.849504 0.0348592 -3.19589e-18)
(0.835489 0.022291 4.14513e-17)
(0.84256 0.0385999 5.22303e-17)
(0.834059 0.0208769 1.00273e-17)
(0.85051 0.0422414 -2.24374e-17)
(0.843176 0.0224666 -4.05158e-17)
(0.839608 0.0453186 1.05984e-16)
(0.820005 0.0226501 -1.39979e-18)
(0.801412 0.0504577 -4.78519e-18)
(0.834405 -0.0182181 -2.64406e-17)
(0.726165 0.151013 -7.71868e-18)
(1.02731 -0.83584 -1.43737e-17)
(0.824763 0.0396206 1.48428e-17)
(0.826282 0.00598646 -4.19114e-16)
(0.831961 0.0429115 3.38398e-16)
(0.824138 0.0177138 9.33016e-17)
(0.838133 0.0317541 -7.86285e-16)
(0.828501 0.0243725 -6.1007e-16)
(0.83996 0.0281294 -4.30895e-16)
(0.829144 0.0288448 -4.77628e-16)
(0.848216 0.030389 -2.08749e-16)
(0.834773 0.0289942 2.15476e-16)
(0.857214 0.0300717 2.36784e-16)
(0.844589 0.0296264 1.2854e-16)
(0.866587 0.0296902 2.99914e-16)
(0.850048 0.030255 2.00177e-16)
(0.870823 0.030719 -4.39326e-18)
(0.856335 0.0307732 9.57098e-17)
(0.870465 0.0308566 1.34547e-17)
(0.849584 0.0311909 -5.75611e-17)
(0.859596 0.0301654 -1.825e-17)
(0.842343 0.0305635 -1.24641e-16)
(0.849064 0.0308027 -1.97959e-17)
(0.837073 0.0298965 8.27529e-17)
(0.84703 0.032231 -7.69206e-17)
(0.829875 0.0294376 -1.40277e-16)
(0.839097 0.0324622 -4.13217e-17)
(0.834219 0.0290213 2.32178e-17)
(0.842029 0.0348465 2.50691e-17)
(0.847787 0.0251863 -6.49813e-17)
(0.831265 0.0409004 3.58289e-17)
(0.821948 0.0183272 -7.73341e-17)
(0.807166 0.0493262 1.26663e-17)
(0.83327 -0.0212932 -8.69588e-19)
(0.725596 0.151249 -1.39567e-17)
(1.02363 -0.828659 1.97609e-18)
(0.834069 -0.00354408 -5.43833e-17)
(0.827841 0.0440764 8.45207e-17)
(0.825273 0.00984879 -5.24714e-16)
(0.831644 0.0359746 2.69021e-16)
(0.831269 0.0150062 6.65133e-16)
(0.839594 0.031333 3.65693e-16)
(0.830417 0.0187948 2.63507e-16)
(0.842722 0.0305854 3.34255e-16)
(0.835051 0.0167727 5.84038e-16)
(0.848331 0.0314625 3.31011e-16)
(0.843227 0.0177011 -1.68648e-16)
(0.859123 0.0313872 -2.65923e-16)
(0.852359 0.0196477 -2.62308e-16)
(0.865213 0.0318573 -4.36613e-16)
(0.858245 0.0205666 -2.48574e-16)
(0.871088 0.0324245 1.8609e-16)
(0.862093 0.0208401 6.56684e-17)
(0.871983 0.032668 -8.11475e-18)
(0.856767 0.0215062 -1.87932e-17)
(0.865459 0.033798 -1.7202e-16)
(0.844325 0.0224141 -1.48067e-17)
(0.856518 0.0340602 1.5938e-16)
(0.839956 0.023736 1.05178e-16)
(0.84927 0.0349348 -6.2042e-18)
(0.835529 0.0224906 2.8752e-17)
(0.842005 0.0387157 4.41578e-17)
(0.833813 0.0216697 1.25962e-17)
(0.849754 0.0423524 -1.79903e-17)
(0.843632 0.0230195 -4.32926e-17)
(0.839819 0.0458296 1.03876e-16)
(0.820408 0.0228722 2.96479e-19)
(0.802487 0.0533134 -2.70141e-18)
(0.834544 -0.021898 -3.07371e-17)
(0.733578 0.134804 -8.57718e-18)
(1.02209 -0.828052 -1.01419e-17)
(0.821685 0.0392648 8.739e-17)
(0.819867 0.00851877 -1.72433e-17)
(0.827987 0.041686 1.86921e-16)
(0.816822 0.0187042 -6.20944e-16)
(0.832339 0.0318509 -1.46617e-16)
(0.822103 0.025014 2.59311e-16)
(0.833803 0.0283149 1.57395e-16)
(0.824601 0.0294831 2.17521e-17)
(0.838959 0.0298568 -1.71336e-16)
(0.82677 0.0291765 -4.62957e-16)
(0.847347 0.0302656 -3.01437e-16)
(0.834036 0.0295152 1.53137e-16)
(0.856278 0.0298112 2.33886e-16)
(0.844621 0.0297625 1.02447e-16)
(0.865604 0.0296238 2.77587e-16)
(0.851881 0.0300079 1.72417e-16)
(0.870089 0.0308938 2.53134e-18)
(0.856631 0.0310568 9.38795e-17)
(0.870479 0.0309318 1.86886e-17)
(0.85101 0.0313613 -5.41375e-17)
(0.859905 0.0304278 -2.12915e-17)
(0.843052 0.0307211 -1.19892e-16)
(0.849446 0.0310789 -2.02786e-17)
(0.838038 0.0295544 8.82094e-17)
(0.847035 0.0327407 -6.53005e-17)
(0.830844 0.0296222 -1.32202e-16)
(0.839358 0.0335911 -3.59447e-17)
(0.834162 0.02866 2.11834e-17)
(0.842275 0.0356448 2.51366e-17)
(0.847743 0.0251421 -6.38631e-17)
(0.832604 0.04179 3.893e-17)
(0.821733 0.0189011 -7.46223e-17)
(0.808153 0.0522212 9.43012e-18)
(0.822867 -0.0114762 2.89635e-19)
(0.733845 0.136401 -1.37806e-17)
(1.01833 -0.821686 7.99197e-18)
(0.832506 -0.00298181 2.55249e-17)
(0.82457 0.0421485 1.10597e-16)
(0.820996 0.0109319 -6.44911e-18)
(0.826664 0.0361902 3.41992e-16)
(0.82801 0.0159279 -4.51767e-16)
(0.836002 0.031648 -4.20576e-16)
(0.829524 0.0194851 -2.45835e-16)
(0.84166 0.0305451 -1.78146e-16)
(0.830604 0.0176272 -1.01267e-16)
(0.842307 0.0314895 1.43567e-16)
(0.834085 0.0175878 5.41525e-16)
(0.847127 0.0313295 4.00783e-16)
(0.841658 0.019125 -9.92221e-17)
(0.857849 0.0311593 -2.45981e-16)
(0.851473 0.0209424 -2.2669e-16)
(0.864557 0.0319681 -4.08949e-16)
(0.857247 0.0212018 -2.5612e-16)
(0.870597 0.0323478 1.65966e-16)
(0.86205 0.0214432 7.43227e-17)
(0.871907 0.0326329 -2.10832e-18)
(0.856939 0.0222114 -1.43867e-17)
(0.864921 0.0338317 -1.59166e-16)
(0.844659 0.0230411 -3.31171e-17)
(0.85525 0.0341776 1.40361e-16)
(0.840123 0.0243833 1.06577e-16)
(0.849105 0.0350396 -7.70535e-18)
(0.835559 0.0228097 1.78282e-17)
(0.841814 0.038427 4.00171e-17)
(0.833515 0.0221246 1.50619e-17)
(0.848845 0.0425441 -1.64182e-17)
(0.843945 0.0233225 -5.15013e-17)
(0.840139 0.0461112 1.007e-16)
(0.82048 0.0227051 8.00422e-20)
(0.806793 0.0520941 4.44104e-21)
(0.825942 -0.0098214 -2.62659e-17)
(0.732501 0.140326 -9.52826e-18)
(1.0176 -0.819493 -7.62243e-18)
(0.824655 0.0389689 1.53439e-16)
(0.824831 0.0100423 1.2108e-17)
(0.830157 0.0411422 6.31079e-17)
(0.815083 0.0197114 -5.75018e-17)
(0.832052 0.0321337 5.80478e-16)
(0.822495 0.025778 3.07547e-16)
(0.836721 0.0289844 -9.4493e-17)
(0.829919 0.0303119 -4.77611e-17)
(0.83935 0.0294593 1.39277e-16)
(0.824583 0.0299205 1.09637e-16)
(0.839153 0.0301136 -7.55757e-17)
(0.826307 0.02961 -4.11752e-16)
(0.846444 0.0298649 -3.39565e-16)
(0.834246 0.0296998 1.02835e-16)
(0.855606 0.0297777 2.24093e-16)
(0.844855 0.0299022 8.11337e-17)
(0.864846 0.0294597 2.39216e-16)
(0.851958 0.0304482 1.4564e-16)
(0.869562 0.0311684 1.05685e-17)
(0.857225 0.0312688 9.31724e-17)
(0.87046 0.0309506 2.195e-17)
(0.851909 0.0313286 -4.9757e-17)
(0.861048 0.0304121 -3.06696e-17)
(0.843672 0.0306244 -1.12999e-16)
(0.850913 0.0311618 -1.22649e-17)
(0.838551 0.0295136 9.4887e-17)
(0.847044 0.0331518 -5.67683e-17)
(0.831579 0.0298214 -1.25427e-16)
(0.839288 0.0341119 -3.96959e-17)
(0.834199 0.0286021 1.6091e-17)
(0.842416 0.0363676 2.78857e-17)
(0.847563 0.025246 -6.0243e-17)
(0.833805 0.0423968 4.16157e-17)
(0.822026 0.0190326 -7.29983e-17)
(0.810018 0.0483292 6.64304e-18)
(0.826885 -0.0133668 -4.26458e-18)
(0.732926 0.142129 -1.4377e-17)
(1.01417 -0.813122 -2.4699e-18)
(0.840547 -0.0021847 -1.54838e-16)
(0.83393 0.0417369 1.07599e-16)
(0.832164 0.0122208 5.94206e-17)
(0.834121 0.0366761 1.2938e-16)
(0.835946 0.0168977 -6.95325e-17)
(0.843305 0.0323651 1.68119e-16)
(0.842063 0.0203691 2.33629e-16)
(0.853378 0.0309529 1.32051e-16)
(0.838908 0.0188649 3.01401e-17)
(0.844793 0.0314539 -1.37582e-16)
(0.830555 0.0194603 -1.41125e-16)
(0.841643 0.0310107 6.15424e-17)
(0.833684 0.0188704 4.71267e-16)
(0.846339 0.03114 4.23811e-16)
(0.840645 0.0201554 -4.73942e-17)
(0.856572 0.0309678 -2.24775e-16)
(0.851274 0.0213132 -2.0189e-16)
(0.86408 0.0315461 -3.79837e-16)
(0.857234 0.0213276 -2.50737e-16)
(0.869878 0.0326046 1.41939e-16)
(0.861837 0.0218979 8.23668e-17)
(0.871907 0.0328087 2.65436e-18)
(0.856832 0.0226329 -9.26582e-18)
(0.864688 0.0339845 -1.55919e-16)
(0.845149 0.0237842 -5.12866e-17)
(0.854564 0.0341795 1.30005e-16)
(0.84039 0.0248986 1.0951e-16)
(0.849167 0.0351366 -8.28487e-18)
(0.835448 0.0237326 1.72947e-18)
(0.841717 0.0386946 3.38033e-17)
(0.833349 0.0224272 1.65458e-17)
(0.848169 0.0427442 -1.22736e-17)
(0.844138 0.0237246 -5.60782e-17)
(0.840596 0.0463704 9.75605e-17)
(0.820725 0.0236847 -4.16642e-18)
(0.805983 0.0535546 -3.89095e-18)
(0.829701 -0.0155789 -2.03108e-17)
(0.731236 0.144777 -1.04532e-17)
(1.01368 -0.810824 1.07123e-18)
(0.834497 0.0387252 2.74819e-17)
(0.836758 0.0116578 -1.62731e-16)
(0.83703 0.0406912 8.80648e-17)
(0.823439 0.0209971 1.24809e-16)
(0.843181 0.0326584 1.04566e-16)
(0.834615 0.026788 -3.61646e-16)
(0.852679 0.0299032 -3.63993e-16)
(0.845652 0.0313496 -1.898e-16)
(0.850338 0.0298198 -2.34878e-16)
(0.833506 0.0301912 -1.60037e-16)
(0.840983 0.0287032 9.05207e-17)
(0.826564 0.0294876 1.15281e-16)
(0.838925 0.0296846 -2.40625e-17)
(0.826057 0.0297648 -3.60229e-16)
(0.845643 0.0298105 -3.4869e-16)
(0.834785 0.029527 6.43434e-17)
(0.854914 0.0298761 2.14439e-16)
(0.844903 0.0300418 7.11665e-17)
(0.864117 0.029703 2.14523e-16)
(0.851973 0.0306948 1.34799e-16)
(0.869931 0.0308787 2.24755e-17)
(0.857424 0.0314116 9.21519e-17)
(0.870512 0.0308891 2.6394e-17)
(0.852665 0.0316476 -4.50575e-17)
(0.861452 0.0305137 -3.14266e-17)
(0.844246 0.0305711 -1.09602e-16)
(0.851106 0.0315491 -1.1915e-17)
(0.839 0.02942 9.59845e-17)
(0.847149 0.0335545 -4.80929e-17)
(0.832325 0.0293097 -1.11348e-16)
(0.83921 0.0345804 -3.67519e-17)
(0.83407 0.0286142 1.71973e-17)
(0.842652 0.0372514 2.75346e-17)
(0.847238 0.025501 -5.97544e-17)
(0.835023 0.0429164 4.13058e-17)
(0.822085 0.0199262 -6.17462e-17)
(0.809433 0.0507912 1.02831e-17)
(0.828567 -0.0171545 -7.71668e-18)
(0.739781 0.128201 -1.83637e-17)
(1.00946 -0.806984 -1.8503e-17)
(0.853612 -0.00115909 -2.6201e-16)
(0.84823 0.0409287 -4.55051e-17)
(0.844854 0.0139363 -2.31382e-16)
(0.844858 0.0373598 -2.22618e-17)
(0.850306 0.0178252 -2.72571e-16)
(0.857632 0.0331418 -1.12418e-16)
(0.859563 0.0212062 -1.38812e-16)
(0.866472 0.0313733 -1.19092e-16)
(0.8535 0.0199323 1.40216e-17)
(0.857874 0.0328281 1.2338e-16)
(0.841908 0.0208681 7.73243e-17)
(0.845852 0.0319419 -1.04676e-16)
(0.831121 0.020309 -1.46833e-16)
(0.84161 0.0310636 1.24402e-17)
(0.832673 0.0205557 3.88776e-16)
(0.845602 0.0309733 4.2412e-16)
(0.839742 0.0207083 -1.04578e-17)
(0.855558 0.030958 -2.0661e-16)
(0.850192 0.0221946 -1.77805e-16)
(0.863456 0.031341 -3.45448e-16)
(0.85665 0.0221382 -2.41797e-16)
(0.869118 0.0326601 1.26136e-16)
(0.861952 0.0223888 8.98403e-17)
(0.871761 0.0328029 6.5624e-18)
(0.857006 0.0230223 -7.40016e-18)
(0.864496 0.0340302 -1.50825e-16)
(0.845638 0.0243074 -6.47028e-17)
(0.854254 0.0342799 1.19363e-16)
(0.840502 0.025246 1.13974e-16)
(0.849181 0.0352749 -7.55937e-18)
(0.835353 0.0241489 -7.17707e-18)
(0.841791 0.0388597 2.97689e-17)
(0.833017 0.022865 1.77208e-17)
(0.847589 0.0426013 -7.88138e-18)
(0.844145 0.0241481 -5.95791e-17)
(0.840995 0.0465796 1.02008e-16)
(0.820736 0.0243754 -3.30207e-18)
(0.806307 0.0552915 -2.67009e-18)
(0.820844 -0.00560178 -2.06001e-17)
(0.738658 0.132301 -8.01892e-18)
(1.00895 -0.804578 4.1542e-18)
(0.845292 0.0382201 5.52913e-17)
(0.851271 0.0134353 -2.73901e-16)
(0.848576 0.0405441 -8.39776e-17)
(0.840219 0.0223292 -3.26157e-16)
(0.859548 0.0332699 -2.52728e-16)
(0.849816 0.0276553 -1.9636e-16)
(0.867004 0.0304728 1.89852e-16)
(0.854727 0.0319127 3.86293e-16)
(0.86108 0.0296331 2.07727e-16)
(0.849038 0.0310139 -3.66197e-17)
(0.853441 0.0293018 -2.09677e-16)
(0.835578 0.0300371 -1.93254e-16)
(0.841947 0.0286582 5.3712e-17)