/*--------------------------------*- C++ -*----------------------------------*\
| =========                 |                                                 |
| \\      /  F ield         | OpenFOAM: The Open Source CFD Toolbox           |
|  \\    /   O peration     | Version:  2206                                  |
|   \\  /    A nd           | Website:  www.openfoam.com                      |
|    \\/     M anipulation  |                                                 |
\*---------------------------------------------------------------------------*/
FoamFile
{
    version     2.0;
    format      ascii;
    arch        "LSB;label=32;scalar=64";
    class       volScalarField;
    location    "210";
    object      T;
}
// * * * * * * * * * * * * * * * * * * * * * * * * * * * * * * * * * * * * * //

dimensions      [0 0 0 1 0 0 0];

internalField   nonuniform List<scalar> 
93840
(
0.920037
1.01198
0.917873
1.09789
1.01844
0.922753
0.945523
1.08155
0.991359
0.943443
1.02017
1.05594
1.03983
0.946955
0.960796
1.0187
1.05116
1.08617
1.05181
0.959852
0.973295
1.03063
1.01445
1.04106
0.995598
1.10943
1.01321
0.964051
1.0113
1.04693
0.97909
1.02174
0.990607
1.082
1.01871
0.965587
1.02437
1.02534
1.03985
1.02488
1.0265
0.977334
1.07478
1.0206
0.968862
0.998264
1.04348
1.00338
1.06091
1.01783
1.0308
1.03294
1.05908
1.01534
0.97151
1.01314
1.01244
1.04849
1.02835
1.03978
1.02791
1.04286
1.03892
1.05167
1.01743
0.973836
0.987659
1.02519
0.999432
1.0462
1.01702
1.04158
1.02751
1.03497
1.03661
1.04864
1.01454
0.975833
1.01421
0.996199
1.04107
1.01755
1.0412
1.02348
1.03327
1.02264
1.04524
1.03797
1.04619
1.01652
0.977646
0.989959
1.01489
0.993875
1.03734
1.01381
1.03259
1.02197
1.0365
1.03396
1.03296
1.03419
1.04491
1.01455
0.979184
1.01715
0.988572
1.03212
1.01048
1.03703
1.01064
1.03648
1.01671
1.03547
1.02091
1.04506
1.03818
1.04369
1.01591
0.980605
0.988042
1.01196
0.987256
1.03302
1.0085
1.02227
1.02124
1.03117
1.02296
1.0327
1.03457
1.03116
1.0352
1.0429
1.0141
0.981946
1.01858
0.982307
1.02591
1.00555
1.03176
1.00304
1.03799
1.01032
1.0348
1.01692
1.03537
1.02139
1.04326
1.03716
1.04189
1.0157
0.983055
0.992149
1.01575
0.984792
1.02884
1.00671
1.01828
1.01483
1.02381
1.019
1.0301
1.02344
1.03194
1.03433
1.0332
1.03431
1.04126
1.01429
0.984271
1.01716
0.988315
1.02237
1.00256
1.03017
1.00008
1.03192
1.00372
1.03438
1.01038
1.03342
1.01999
1.03582
1.0224
1.04107
1.03701
1.04052
1.01571
0.985207
0.989113
1.01244
0.979113
1.02659
1.00544
1.01725
1.01163
1.02018
1.01308
1.02501
1.02024
1.03117
1.02491
1.03162
1.03615
1.03228
1.03433
1.03987
1.01439
0.98632
1.01556
0.984041
1.02212
1.00306
1.02766
0.998555
1.02911
1.0002
1.03075
1.00586
1.03485
1.01048
1.03461
1.01786
1.0367
1.02377
1.0408
1.03628
1.03921
1.01576
0.987237
0.98699
1.0129
0.988914
1.0244
1.00088
1.01853
1.01017
1.01792
1.00898
1.02128
1.01298
1.02537
1.02092
1.02983
1.02549
1.03139
1.03653
1.03196
1.03187
1.03877
1.01486
0.988235
1.01328
0.988631
1.02042
0.997492
1.02487
1.00094
1.02892
0.998047
1.02435
1.00141
1.031
1.00986
1.03367
1.01237
1.03317
1.01852
1.03818
1.02499
1.0412
1.03556
1.03837
1.01598
0.989137
0.98643
1.01354
0.985906
1.02074
1.00124
1.01781
1.0108
1.01928
1.00564
1.01917
1.00782
1.02106
1.01611
1.02586
1.01882
1.03036
1.02662
1.03093
1.03235
1.03186
1.03181
1.03799
1.01506
0.990081
1.0096
0.989477
1.01335
0.995955
1.02371
0.997862
1.02848
1.00067
1.02531
0.998868
1.02412
1.00183
1.02849
1.00818
1.03428
1.01255
1.0351
1.01734
1.03638
1.02398
1.0381
1.03529
1.03767
1.01618
0.990968
0.981817
1.00267
0.982674
1.0188
0.999647
1.01543
1.01049
1.01952
1.00726
1.0167
1.00797
1.01997
1.01067
1.02153
1.0137
1.02691
1.01966
1.03093
1.02701
1.03133
1.03094
1.03295
1.03115
1.03726
1.01561
0.991889
1.01018
0.981361
1.0167
0.99844
1.02413
0.993854
1.0284
1.0004
1.02711
0.99997
1.0275
0.999386
1.02605
1.00355
1.02837
1.0067
1.03358
1.0136
1.03583
1.0176
1.03687
1.02667
1.03881
1.03378
1.03702
1.01654
0.9927
0.980742
1.01091
0.994231
1.01597
1.00065
1.01202
1.00947
1.01808
1.00794
1.01708
1.00772
1.01785
1.01008
1.01937
1.00823
1.02331
1.01625
1.02686
1.02021
1.03088
1.02764
1.0314
1.03653
1.03251
1.03207
1.03661
1.01625
0.99358
1.01152
0.987413
1.00512
0.988755
1.02437
0.993645
1.02527
1.00063
1.02662
0.998613
1.02703
1.00081
1.02654
1.00035
1.02487
1.0026
1.03096
1.00723
1.03449
1.01484
1.03536
1.01872
1.03937
1.02825
1.03646
1.03322
1.03644
1.01715
0.994409
0.988123
1.00313
1.00507
1.01321
1.00301
1.01269
1.00585
1.01963
1.00576
1.01804
1.00991
1.01563
1.00802
1.0166
1.00869
1.01973
1.01262
1.02359
1.01511
1.02732
1.01995
1.03008
1.02818
1.03277
1.03249
1.03188
1.03153
1.03613
1.01699
0.995211
1.01221
0.997856
1.0027
0.989091
1.02445
0.993109
1.02167
1.00111
1.02526
1.00171
1.02604
0.999951
1.02717
1.00057
1.02532
0.998364
1.02554
1.00655
1.02921
1.00854
1.0343
1.01497
1.03582
1.01969
1.03503
1.02723
1.03689
1.03373
1.03602
1.01754
0.996022
0.98966
1.00479
0.985179
1.01207
1.00042
1.01131
1.00416
1.02097
1.00259
1.01882
1.00929
1.01681
1.00682
1.01734
1.00772
1.01759
1.01088
1.02057
1.01486
1.02428
1.01344
1.02752
1.02037
1.03063
1.02847
1.03086
1.02916
1.03117
1.03168
1.0357
1.01799
0.996712
1.01246
0.990942
1.01237
0.995349
1.02158
0.993642
1.01992
1.00198
1.01931
1.00015
1.02223
1.00007
1.02527
1.00164
1.02751
0.999201
1.02509
1.00129
1.02473
1.00855
1.02985
1.00815
1.03394
1.01555
1.03545
1.01844
1.03715
1.02577
1.03799
1.03263
1.03561
1.01823
0.997364
0.987491
1.01112
0.990874
1.00993
0.997066
1.01223
1.00396
1.02015
0.99838
1.02007
1.00487
1.01893
1.00808
1.01756
1.00965
1.01781
1.00975
1.01797
1.0099
1.01942
1.00859
1.02439
1.02039
1.02848
1.02102
1.03156
1.02867
1.031
1.02939
1.03433
1.03182
1.03549
1.01903
0.998177
1.01436
0.992258
1.01447
0.991788
1.02079
0.996433
1.01841
0.999879
1.01911
1.00001
1.02152
1.00097
1.02314
1.00279
1.02563
1.00094
1.02682
0.999211
1.02638
0.998886
1.02517
1.00948
1.03041
1.01038
1.03387
1.01698
1.03578
1.0183
1.03927
1.02163
1.03641
1.03189
1.03655
1.01343
0.998534
0.991146
1.01141
0.993948
1.00953
0.998527
1.01314
1.00312
1.01729
0.999307
1.01914
1.00403
1.01949
1.00485
1.01897
1.00752
1.01754
1.00983
1.01803
1.01101
1.01782
1.00899
1.02096
1.01501
1.02471
1.01612
1.02905
1.02205
1.02967
1.02629
1.03316
1.02994
1.03482
1.03031
1.0436
1.01301
0.99905
1.01439
1.00318
1.0118
0.990151
1.02077
0.995197
1.01664
0.997587
1.01943
0.999842
1.0199
0.998771
1.02181
1.00309
1.02378
1.00301
1.02443
1.00218
1.02733
1.00006
1.02621
1.00269
1.02843
1.00581
1.03117
1.0094
1.03364
1.01561
1.03502
1.0166
1.0402
1.01953
1.03909
1.02757
1.04244
1.01553
0.99956
0.995472
1.00799
1.00556
1.00951
1.00095
1.01251
1.00339
1.01628
0.999041
1.01555
1.00228
1.01886
1.00591
1.01966
1.00569
1.0196
1.00858
1.01769
1.01132
1.01774
1.00953
1.01711
1.00857
1.01867
1.01286
1.02581
1.01963
1.02982
1.02158
1.0298
1.02592
1.03311
1.03261
1.03355
1.03008
1.04091
1.01452
1.00011
1.0117
1.00437
1.00013
0.985071
1.01929
0.993906
1.01667
0.996143
1.01801
0.998276
1.02078
0.999228
1.02183
1.00083
1.02205
1.00493
1.02345
1.00356
1.02528
1.00339
1.0289
0.998632
1.02747
0.999533
1.02641
1.00649
1.03283
1.01212
1.03379
1.01439
1.03529
1.01921
1.04069
1.02001
1.04046
1.02857
1.03991
1.01765
1.00066
0.994167
1.0067
0.991891
1.00778
1.00133
1.0114
1.00319
1.01298
1.00269
1.01434
1.00277
1.01554
1.00603
1.01881
1.00735
1.01828
1.0058
1.02
1.01111
1.01969
1.01118
1.01828
1.00807
1.01667
1.01474
1.01915
1.01044
1.02642
1.02052
1.03096
1.01828
1.02989
1.02515
1.03511
1.02886
1.03467
1.03044
1.04032
1.00928
1.00086
1.00808
0.995836
1.005
0.988213
1.01789
0.993244
1.01607
0.997631
1.01524
1.00222
1.01809
0.998609
1.02198
0.999157
1.02266
1.00053
1.02197
1.00688
1.02154
1.00288
1.02429
1.00676
1.03029
1.00414
1.02873
0.999196
1.02967
1.00797
1.02791
1.01332
1.03554
1.01522
1.03626
1.01685
1.04253
1.01904
1.04185
1.02769
1.04454
1.0119
1.0013
0.990436
1.00546
0.996679
1.0045
1.00112
1.00938
1.00225
1.01027
1.00585
1.01248
1.0038
1.01495
1.00471
1.0157
1.00663
1.01819
1.0094
1.0203
1.00533
1.02047
1.01225
1.02326
1.01056
1.01764
1.00965
1.01834
1.01187
1.02066
1.01773
1.0283
1.01612
1.02923
1.02175
1.03281
1.0252
1.0318
1.0287
1.03651
1.02832
1.0442
1.0119
1.00172
1.00702
0.98712
0.996359
0.987604
1.01695
0.992118
1.01493
0.999285
1.01642
0.997508
1.01641
0.997543
1.01838
0.997591
1.02282
0.996738
1.02342
0.999907
1.01905
1.0073
1.02141
1.00276
1.02177
1.00836
1.02949
1.0024
1.02859
1.00177
1.02549
1.00998
1.03046
1.01734
1.03437
1.01802
1.03449
1.01722
1.04141
1.01898
1.04013
1.02779
1.04281
1.01435
1.00212
0.990557
1.00412
0.997439
1.00316
1.00229
1.00746
1.00152
1.01045
1.00289
1.01169
1.00601
1.01439
1.00633
1.01535
1.00655
1.01704
1.00626
1.01734
1.00978
1.01899
1.007
1.02166
1.01217
1.02175
1.00981
1.01844
1.01189
1.01763
1.01557
1.01963
1.01394
1.02724
1.01828
1.03172
1.02269
1.03214
1.02502
1.03441
1.03024
1.03537
1.02846
1.04113
1.01372
1.00257
1.00326
0.993237
1.00078
0.983529
1.01694
0.991318
1.01219
0.998009
1.01603
0.997608
1.0152
0.999107
1.01591
0.99919
1.01847
0.996194
1.01864
1.0006
1.01844
1.00542
1.01874
1.00709
1.02199
1.00658
1.02286
1.00658
1.02982
1.00564
1.02723
0.999186
1.0231
1.00913
1.02888
1.01558
1.03168
1.01681
1.03098
1.01627
1.04235
1.01732
1.04118
1.0294
1.04014
1.01645
1.00315
0.990209
1.00156
0.990148
1.00169
1.00288
1.00577
0.999446
1.01123
1.00018
1.01341
1.00333
1.01322
1.0136
1.01253
1.00276
1.01511
1.01053
1.01831
1.01019
1.01931
1.01004
1.02033
1.00847
1.02172
1.01037
1.02215
1.01056
1.018
1.00927
1.01864
1.01157
1.02299
1.01004
1.028
1.02192
1.03045
1.02244
1.03075
1.02667
1.0351
1.0301
1.03492
1.02865
1.04045
1.00867
1.00337
1.00062
0.99511
1.00323
0.983021
1.01606
0.991344
1.01142
0.99912
1.01456
0.99864
1.01497
1.00135
1.01365
0.994875
1.01402
1.00366
1.01909
1.00078
1.01802
1.00307
1.01756
1.00443
1.01951
1.00711
1.023
1.00856
1.02331
1.00865
1.02648
1.00175
1.02656
1.0022
1.02372
1.01309
1.02715
1.01862
1.02918
1.02013
1.03251
1.01819
1.042
1.01835
1.03972
1.02943
1.04528
1.01048
1.00378
0.987875
1.00242
0.990185
0.999431
1.0021
1.0071
0.999988
1.01101
1.00115
1.0107
1.00224
1.01065
1.00602
1.01324
1.00605
1.0144
1.00684
1.01576
1.00839
1.01978
1.01156
1.01994
1.00988
1.02134
1.00992
1.02274
1.01221
1.02236
1.01062
1.01721
1.01322
1.01986
1.01411
1.02332
1.01515
1.02602
1.02357
1.02998
1.01888
1.03173
1.02584
1.03443
1.02453
1.03695
1.02716
1.04405
1.01091
1.00416
1.0037
0.990425
1.00082
0.983379
1.01618
0.993878
1.0107
0.997681
1.01127
0.997221
1.01424
0.997731
1.01321
0.999198
1.01371
1.00356
1.01285
1.00431
1.0189
1.00388
1.01851
1.00334
1.01787
1.00421
1.01984
1.00747
1.02392
1.00771
1.02331
1.00585
1.02545
1.0019
1.02815
1.00278
1.02334
1.01753
1.02475
1.01955
1.03063
1.01819
1.03282
1.0172
1.04269
1.0171
1.03935
1.02835
1.04255
1.01171
1.0046
0.986847
1.00572
0.992862
1.00016
0.999872
1.00737
0.999048
1.01012
1.00227
1.01103
0.998967
1.0123
1.00123
1.01166
1.00542
1.01358
1.00487
1.01669
1.00655
1.01559
1.01152
1.01879
1.01277
1.01907
1.01082
1.0226
1.01194
1.02222
1.01067
1.02294
1.00966
1.01841
1.00941
1.01833
1.01462
1.02322
1.01727
1.02392
1.01868
1.03117
1.01651
1.03059
1.02736
1.03308
1.02663
1.03608
1.02929
1.04112
1.01191
1.00501
1.00662
0.990536
0.997713
0.982611
1.01376
0.995497
1.01067
0.999535
1.0117
0.996794
1.01158
0.996819
1.01266
0.997544
1.01445
1.0027
1.01288
1.00428
1.01557
1.00508
1.01842
1.00395
1.01852
1.00249
1.01854
1.00414
1.01971
1.00641
1.02166
1.01026
1.02365
1.0067
1.02558
1.00478
1.02388
1.0058
1.02221
1.01385
1.0237
1.01783
1.03275
1.01865
1.03428
1.0187
1.03628
1.02042
1.0421
1.02962
1.03992
1.01283
1.00542
0.995014
1.00475
0.994653
0.999992
0.999394
1.00988
1.0008
1.00875
1.0017
1.01032
1.00051
1.01148
1.00056
1.01065
1.00313
1.01214
1.00744
1.01359
1.00642
1.01421
1.00707
1.01472
1.00717
1.01838
1.01212
1.02019
1.01072
1.02177
1.01256
1.02223
1.01047
1.02315
1.0099
1.01786
1.01089
1.01977
1.01755
1.02087
1.01569
1.02524
1.01721
1.03354
1.01988
1.03054
1.02691
1.03725
1.02093
1.03696
1.03132
1.03883
1.01305
1.00584
1.00346
0.993863
0.996719
0.983549
1.01459
0.997774
1.01169
0.999826
1.01149
0.996357
1.01006
0.997241
1.0129
0.998471
1.01335
0.998277
1.01419
1.00184
1.01262
1.00457
1.01506
1.00245
1.01991
1.00419
1.01941
1.00428
1.0183
1.00417
1.02065
1.00865
1.02193
1.01096
1.02388
1.00635
1.0255
1.00851
1.02371
1.00771
1.02027
1.01483
1.02591
1.01654
1.03253
1.01887
1.03248
1.01734
1.03902
1.01942
1.04191
1.03094
1.03802
1.01348
1.00631
0.995424
1.00254
0.994672
1.00099
0.997992
1.00997
1.00149
1.00982
1.00179
1.00977
1.00384
1.01139
0.999657
1.01018
1.00071
1.0107
1.00624
1.01103
1.0069
1.01434
1.00513
1.0164
1.01052
1.01371
1.00898
1.01869
1.01354
1.01811
1.01118
1.02166
1.01508
1.02324
1.01079
1.0237
1.0091
1.01791
1.01113
1.02029
1.01435
1.02076
1.01345
1.02681
1.01655
1.03253
1.02038
1.03099
1.02414
1.03381
1.02167
1.03822
1.03245
1.03725
1.01381
1.00668
1.00366
0.997554
0.996479
0.985258
1.01241
0.996813
1.01224
0.999704
1.01111
0.997357
1.0108
0.999599
1.01058
0.998141
1.01244
0.99918
1.01262
1.00109
1.01443
1.00316
1.01302
1.00325
1.01587
1.00606
1.0209
1.00318
1.02168
1.00221
1.01999
1.00493
1.02096
1.00801
1.0229
1.01029
1.02348
1.00734
1.02588
1.00882
1.02176
1.00955
1.0218
1.01311
1.0294
1.01582
1.03381
1.01865
1.03078
1.01964
1.03832
1.01937
1.04001
1.03241
1.03672
1.01435
1.00711
1.00036
1.00141
0.990357
1.0024
0.99577
1.00968
1.00422
1.01032
1.00217
1.0104
1.00213
1.01042
0.999774
1.01112
1.00203
1.01078
1.00268
1.00978
1.00465
1.00954
1.0046
1.01326
1.00573
1.01493
1.01256
1.01463
1.00381
1.01863
1.01366
1.01939
1.01118
1.02132
1.01057
1.0247
1.01056
1.02403
1.00976
1.01605
1.00935
1.02242
1.01088
1.02016
1.01329
1.02943
1.01577
1.032
1.01866
1.03155
1.02119
1.03678
1.02317
1.03899
1.03224
1.03606
1.01432
1.00752
0.995745
0.997001
0.996843
0.987888
1.00946
0.99686
1.01363
1.00095
1.00963
0.999114
1.00973
0.998777
1.01045
0.998538
1.00944
0.997721
1.01139
0.99843
1.01205
0.999205
1.01348
1.00316
1.0124
1.00502
1.01415
1.00529
1.01965
1.00585
1.02058
1.00407
1.01925
1.0046
1.02037
1.00893
1.02262
1.01038
1.02306
1.0081
1.02531
1.00785
1.02185
1.01054
1.02265
1.01306
1.02952
1.01501
1.03305
1.01742
1.03154
1.0186
1.04527
1.01934
1.0395
1.03238
1.03559
1.01465
1.00794
0.998184
1.00077
0.990405
1.00234
0.993933
1.00934
1.00568
1.00956
1.00123
1.01186
1.00166
1.01218
1.00135
1.01166
0.998917
1.00939
1.00131
1.00973
1.00065
1.01033
1.0013
1.01072
1.00429
1.01366
1.00668
1.0132
1.01212
1.0163
1.00746
1.01911
1.01258
1.0202
1.01072
1.02152
1.01078
1.02501
1.01219
1.02423
1.01266
1.01626
1.00791
1.02307
1.01159
1.0247
1.01421
1.03045
1.01441
1.03232
1.01818
1.03094
1.02082
1.03736
1.02324
1.03949
1.03108
1.03521
1.01489
1.0083
0.999757
0.995875
0.997472
0.98729
1.00722
0.996778
1.01389
1.00246
1.00804
1.00224
1.00991
1.00098
1.01136
0.999677
1.01111
0.99953
1.00961
0.99772
1.01038
0.998047
1.01148
1.00074
1.01334
1.00253
1.01313
1.00726
1.01477
1.00455
1.02039
1.00644
1.02082
1.0024
1.01878
1.00456
1.02076
1.00804
1.02291
1.01119
1.02516
1.00843
1.02497
1.00679
1.02241
1.0092
1.02298
1.01326
1.02892
1.01419
1.03283
1.01912
1.03208
1.01809
1.0385
1.02132
1.0402
1.03181
1.03552
1.01154
1.00863
0.991671
0.999384
0.993696
1.0002
0.990196
1.0082
1.00588
1.01064
1.00122
1.01148
1.00107
1.0127
1.00167
1.01252
1.00062
1.01215
0.999812
1.00931
1.00109
1.0102
1.00047
1.01038
1.0004
1.01105
1.00377
1.01243
1.00585
1.01218
1.01292
1.01558
1.00659
1.01974
1.0123
1.01935
1.01327
1.02139
1.01413
1.02346
1.0132
1.02516
1.01067
1.01751
1.00898
1.02256
1.01009
1.02326
1.01415
1.03061
1.01491
1.03248
1.01947
1.03312
1.02159
1.03792
1.02516
1.03909
1.03068
1.03954
1.01115
1.00896
0.997659
0.994006
0.99727
0.985389
1.00669
0.997556
1.01367
1.00255
1.01046
1.00101
1.00878
1.00338
1.01113
1.00085
1.01079
0.999816
1.01179
0.997976
1.0107
0.99588
1.012
0.997374
1.01172
1.00017
1.01428
1.00305
1.01199
1.00524
1.01512
1.00433
1.01744
1.00519
1.01986
1.0032
1.01944
1.00566
1.02189
1.00833
1.02202
1.0115
1.02389
1.00884
1.02465
1.0097
1.02423
1.01054
1.02677
1.01316
1.03045
1.01473
1.03188
1.02106
1.03298
1.02295
1.03701
1.02101
1.0402
1.02936
1.03879
1.01271
1.00929
0.994674
0.996276
0.995013
0.998357
0.991685
1.00865
1.00547
1.01072
1.00267
1.01145
1.00005
1.01365
1.0021
1.01593
1.00042
1.01459
1.0029
1.01214
0.999334
1.01052
1.00144
1.00952
1.00217
1.01181
0.999115
1.01116
1.00268
1.01395
1.00641
1.01522
1.01077
1.01838
1.01162
1.01948
1.01381
1.01932
1.01106
1.02145
1.01333
1.02369
1.014
1.02544
1.01348
1.01809
1.00796
1.02281
1.01106
1.02417
1.01179
1.02994
1.01848
1.03069
1.02209
1.03201
1.02338
1.03613
1.02682
1.04024
1.02893
1.03781
1.01232
1.00967
0.997178
0.989637
0.998157
0.983769
1.00682
0.998154
1.01341
1.00219
1.01238
1.00039
1.00895
1.00382
1.00951
1.00249
1.01194
1.00168
1.01223
1.0006
1.01106
0.996464
1.01184
0.998387
1.01105
0.998285
1.01333
1.00062
1.01382
1.00185
1.01376
1.0045
1.01538
1.0042
1.01804
1.00734
1.01879
1.00369
1.01867
1.00444
1.02111
1.01075
1.02258
1.01323
1.02408
1.00703
1.02585
1.00902
1.02344
1.01074
1.02583
1.01222
1.02978
1.02073
1.02967
1.02277
1.03243
1.02235
1.03501
1.02041
1.04017
1.02972
1.0371
1.0138
1.01005
0.994214
0.998006
0.993951
0.998607
0.991671
1.008
1.00487
1.00919
1.00508
1.01052
1.00279
1.01154
1.00014
1.01422
1.00159
1.01545
1.00163
1.01463
1.00272
1.01369
1.00143
1.01133
0.999649
1.01031
1.00328
1.01142
1.00066
1.01064
1.00135
1.01334
1.00503
1.01296
1.01235
1.01925
1.01317
1.01915
1.01513
1.0201
1.01384
1.02271
1.01273
1.0246
1.01531
1.02456
1.01378
1.0184
1.00698
1.02278
1.01183
1.02685
1.01473
1.02953
1.02169
1.02891
1.02235
1.03139
1.02389
1.03473
1.02468
1.03945
1.02924
1.03735
1.00917
1.01044
0.995843
0.98598
0.998379
0.983497
1.00554
0.998652
1.01332
1.00205
1.01314
1.00277
1.01034
1.00022
1.00809
1.00356
1.01153
1.00107
1.01116
1.00063
1.0131
1.00169
1.013
0.998671
1.0109
0.999538
1.01089
1.00004
1.01294
1.00027
1.0136
1.00055
1.0129
1.00557
1.01577
1.00646
1.01874
1.00903
1.01885
1.00502
1.01881
1.00392
1.02239
1.01072
1.02349
1.012
1.02375
1.00951
1.0243
1.0087
1.02224
1.01057
1.02687
1.01524
1.02914
1.02151
1.02834
1.02177
1.03403
1.02061
1.03469
1.02115
1.04058
1.03092
1.04098
1.00975
1.0108
0.994121
0.99742
0.995488
0.996969
0.992116
1.0084
1.00445
1.00809
1.00626
1.00923
1.00239
1.01018
1.00418
1.01255
1.00045
1.01243
1.00104
1.0151
1.0046
1.01311
1.00086
1.01436
1.00171
1.0098
1.00202
1.00922
1.0029
1.01165
0.999756
1.01255
1.00136
1.01332
1.00485
1.01562
1.01139
1.01899
1.01091
1.01915
1.01412
1.02029
1.01195
1.02198
1.01265
1.02463
1.01554
1.02483
1.01328
1.01953
1.0112
1.02241
1.01157
1.02574
1.01646
1.02863
1.02305
1.02775
1.02106
1.02873
1.02083
1.0354
1.02441
1.03923
1.02648
1.04009
1.01021
1.01122
0.995749
0.986985
0.997935
0.983095
1.00372
0.999305
1.01419
1.00189
1.01303
1.00204
1.01282
1.00036
1.00904
1.00035
1.00969
1.00281
1.0134
1.00182
1.0124
1.00487
1.01269
1.00209
1.01204
0.999671
1.01075
0.999759
1.01067
1.00113
1.01172
1.00037
1.01396
1.00028
1.01486
1.00484
1.01653
1.00726
1.01802
1.01045
1.0195
1.00558
1.01898
1.00392
1.02117
1.00858
1.0227
1.01136
1.0239
1.0118
1.02408
1.01242
1.02269
1.01091
1.02661
1.01922
1.02793
1.02261
1.02729
1.02051
1.0339
1.02037
1.03616
1.02124
1.04014
1.02813
1.03897
1.01057
1.01153
0.99406
0.996964
0.997527
0.996718
0.993991
1.00959
1.00301
1.00658
1.00528
1.00756
1.00296
1.00942
1.00751
1.00781
1.00363
1.00921
1.00145
1.01383
1.00324
1.01203
1.0041
1.01357
1.00304
1.01238
1.00468
1.01017
1.00042
1.0102
1.0046
1.01132
1.00044
1.01251
1.00248
1.01361
1.00375
1.01503
1.01029
1.01761
1.01174
1.0196
1.0134
1.0201
1.01382
1.02236
1.01613
1.02508
1.01491
1.02306
1.01506
1.01899
1.01201
1.02273
1.01392
1.02591
1.01837
1.02702
1.02239
1.02705
1.01987
1.03136
1.02026
1.0354
1.02577
1.03898
1.02741
1.03799
1.01071
1.0119
0.995752
0.989928
0.998306
0.980295
1.00339
0.999406
1.01353
1.00161
1.01341
1.00007
1.01421
1.00304
1.01057
1.00077
1.00892
1.00142
1.01176
1.00239
1.01147
1.00488
1.01217
1.00522
1.01272
1.00351
1.01225
1.00096
1.01124
0.999629
1.01103
1.00047
1.01097
1.0004
1.013
1.00175
1.01618
1.00535
1.01607
1.00755
1.01736
1.01145
1.0197
1.00606
1.02047
1.00407
1.0213
1.00761
1.02259
1.0127
1.02439
1.00905
1.02478
1.01037
1.02184
1.01056
1.02495
1.01932
1.02628
1.02149
1.02748
1.01886
1.03387
1.01971
1.03729
1.02012
1.03929
1.02855
1.03704
1.01086
1.01219
0.993793
0.996164
0.997484
0.997519
0.995699
1.00904
1.00211
1.00646
1.00437
1.00613
1.00288
1.0068
1.00223
1.00897
1.00404
1.00855
1.00132
1.01081
1.0027
1.01312
1.00539
1.0117
1.00612
1.01262
1.00362
1.01158
1.00486
1.01018
1.00104
1.00947
1.00358
1.01054
1.00168
1.01217
1.00334
1.01307
1.00343
1.01518
1.01403
1.01725
1.01029
1.01846
1.01393
1.01944
1.01105
1.02196
1.01599
1.02467
1.01581
1.02254
1.01314
1.01883
1.01369
1.02306
1.01649
1.02537
1.01846
1.02608
1.02054
1.02782
1.01814
1.03288
1.0205
1.03707
1.02498
1.03958
1.02853
1.0365
1.01209
1.01253
0.996697
0.99094
0.997525
0.981937
1.00432
0.997638
1.0108
1.00102
1.01246
0.998024
1.01403
1.00512
1.01292
1.0014
1.0121
1.00463
1.00929
1.00076
1.01218
1.00549
1.01235
1.00722
1.01141
1.00481
1.01241
1.00233
1.01196
1.00111
1.01109
1.00081
1.01012
1.00191
1.00984
1.00082
1.01252
1.00081
1.01502
1.0059
1.01619
1.00784
1.01706
1.01166
1.01895
1.00293
1.01972
1.00468
1.02229
1.0063
1.02409
1.01178
1.02359
1.01079
1.02048
1.00959
1.02203
1.01216
1.02442
1.01967
1.02726
1.01969
1.02831
1.01876
1.0354
1.01975
1.03749
1.02102
1.03848
1.02951
1.03672
1.00768
1.01279
0.995294
0.996938
0.999956
0.997323
0.996332
1.00812
1.00077
1.00618
1.00398
1.00541
1.00328
1.00579
0.998847
1.00858
1.00365
1.00936
1.00064
1.01105
1.00283
1.01047
1.00371
1.01181
1.00427
1.01106
1.00437
1.01232
1.00445
1.01223
1.00273
1.01033
1.00305
1.00961
1.00438
1.0091
1.002
1.01222
1.00451
1.01388
1.00445
1.016
1.01176
1.01675
1.01163
1.01833
1.01064
1.01996
1.01525
1.02247
1.01391
1.02488
1.01489
1.022
1.0154
1.02019
1.01388
1.02137
1.01345
1.02372
1.01782
1.0276
1.01908
1.02895
1.01742
1.03518
1.02032
1.03727
1.02514
1.03789
1.02819
1.04028
1.00804
1.0131
0.996559
0.994008
0.998159
0.982002
1.00433
0.995999
1.00879
1.00156
1.01108
0.996532
1.01239
1.00074
1.01329
1.00373
1.01177
1.00193
1.00955
1.00625
1.00811
1.00245
1.01057
1.00746
1.0131
1.00528
1.01126
1.0046
1.01267
1.00464
1.01186
1.00201
1.01077
1.00054
1.00927
1.00187
1.00928
1.00106
1.01192
1.00246
1.01638
1.00639
1.0159
1.00693
1.01665
1.01096
1.01797
1.00694
1.01985
1.00507
1.02013
1.01184
1.02391
1.01334
1.02395
1.01114
1.01964
1.01178
1.02137
1.0134
1.02313
1.01832
1.02704
1.01853
1.02953
1.01673
1.03735
1.02073
1.03754
1.02162
1.03762
1.02829
1.0394
1.00898
1.01349
0.994138
0.99805
0.997451
0.997398
0.994002
1.00501
0.998912
1.00608
1.00262
1.0041
1.00512
1.00708
1.00142
1.00827
1.00135
1.00784
1.00381
1.00904
1.00259
1.01124
1.00407
1.01011
1.0049
1.01039
1.0037
1.01152
1.00551
1.01192
1.0053
1.01134
1.00338
1.01002
1.00444
1.00916
1.00327
1.00929
1.0022
1.01158
1.00623
1.01332
1.00509
1.01503
1.01344
1.01661
1.01078
1.01979
1.00956
1.01909
1.01507
1.02342
1.01256
1.0256
1.01549
1.02273
1.01234
1.01994
1.01216
1.02273
1.01328
1.02484
1.01762
1.02769
1.01809
1.02951
1.01953
1.0348
1.02114
1.03695
1.02546
1.03722
1.02747
1.03842
1.00931
1.01381
0.996655
0.996442
0.996834
0.986701
1.00377
0.995275
1.00691
1.00191
1.00997
0.995827
1.01271
0.998918
1.01187
0.997214
1.00828
1.00421
1.00872
1.00467
1.00912
1.0051
1.00792
1.00351
1.00928
1.00754
1.01328
1.00489
1.01112
1.00472
1.01195
1.00387
1.01123
1.00359
1.00944
1.002
1.01007
1.00177
1.00969
1.00212
1.01179
1.00189
1.01438
1.00488
1.01507
1.01038
1.01637
1.01024
1.02053
1.00819
1.01846
1.00565
1.02129
1.00868
1.02434
1.01265
1.02375
1.01161
1.02031
1.01131
1.02307
1.01278
1.02461
1.01763
1.02718
1.01776
1.03092
1.01865
1.0356
1.02159
1.03638
1.02292
1.03644
1.03009
1.03752
1.01001
1.01419
0.995148
0.997922
0.996636
0.996612
0.993108
1.00345
0.998444
1.00579
1.00065
1.00345
1.00424
1.00634
1.00193
1.00692
1.00476
1.00848
1.00588
1.00849
1.005
1.00869
1.00157
1.01116
1.00438
1.00887
1.00639
1.01117
1.00675
1.01033
1.00504
1.01141
1.00418
1.01084
1.00481
1.00915
1.00274
1.0104
1.00191
1.01086
1.0017
1.01142
1.00375
1.01522
1.00569
1.01383
1.0097
1.01662
1.00958
1.0207
1.01162
1.01971
1.0139
1.02196
1.01518
1.02469
1.01462
1.0215
1.01146
1.02019
1.00911
1.02361
1.01219
1.02336
1.01736
1.02757
1.01742
1.03009
1.01911
1.03458
1.02299
1.03601
1.02636
1.03591
1.02901
1.03671
1.01063
1.01452
0.99772
0.996553
0.997329
0.989599
1.00179
0.993809
1.00478
1.00042
1.00831
0.996438
1.01304
0.997846
1.0085
1.00263
1.01155
1.00522
1.00919
1.00211
1.00895
1.00441
1.00932
1.00504
1.00784
1.00588
1.00909
1.00504
1.01132
1.00666
1.01024
1.00642
1.01158
1.00443
1.01022
1.00347
1.00908
1.00108
1.00987
1.00196
1.00972
1.00116
1.01169
1.00302
1.0156
1.00429
1.01476
1.00918
1.01713
1.00926
1.02018
1.00925
1.01779
1.0056
1.02151
1.00941
1.02272
1.01131
1.02327
1.01245
1.021
1.01127
1.02245
1.01135
1.02405
1.0169
1.02717
1.01683
1.02936
1.02232
1.03428
1.02393
1.03579
1.02358
1.03533
1.0307
1.03591
1.01096
1.01495
0.996051
0.99909
0.994056
0.999219
0.991054
1.00225
0.996883
1.00514
0.999213
1.00246
1.00497
1.00651
1.0069
1.00781
1.00479
1.00613
1.00259
1.00868
1.00528
1.00796
1.00413
1.00941
1.00233
1.01104
1.00499
1.01007
1.00736
1.01139
1.00663
1.00998
1.00552
1.01138
1.00521
1.01035
1.00455
1.00919
1.00177
1.00995
1.00201
1.01077
1.00138
1.01212
1.00341
1.01378
1.00647
1.01428
1.00879
1.01735
1.0093
1.01964
1.00921
1.01862
1.01396
1.02357
1.01427
1.02531
1.01394
1.0218
1.01196
1.01794
1.01088
1.02305
1.01131
1.02502
1.0165
1.02693
1.016
1.03039
1.02177
1.03406
1.02444
1.03558
1.0284
1.03481
1.03007
1.0352
1.01162
1.01531
0.998155
0.998575
0.997831
0.988595
1.00151
0.993219
1.00314
0.999831
1.00774
0.997226
1.01048
0.999959
1.01057
0.999888
1.00688
1.00259
1.00867
1.00483
1.00905
1.00232
1.00855
1.00439
1.00878
1.00551
1.00878
1.00381
1.01051
1.00677
1.01148
1.00645
1.00942
1.00565
1.01125
1.0044
1.01017
1.0029
1.00889
1.00342
1.00946
1.00269
1.01024
1.00083
1.01114
1.00258
1.01763
1.00548
1.01443
1.00824
1.01827
1.00901
1.02087
1.00728
1.01951
1.00459
1.02062
1.00753
1.02393
1.01039
1.0236
1.01003
1.02332
1.00977
1.02389
1.01071
1.02525
1.01614
1.02701
1.01533
1.03085
1.01832
1.03358
1.02533
1.03496
1.02661
1.03532
1.02956
1.03447
1.01189
1.01572
0.998166
0.997722
0.991025
0.998282
0.991181
1.00073
0.995196
1.00449
0.998434
1.00155
1.00442
1.006
1.00583
1.00552
1.0053
1.00626
1.00448
1.00835
1.00348
1.00756
1.00563
1.00759
1.00421
1.00897
1.0023
1.0122
1.00618
1.011
1.00715
1.01128
1.00659
1.0093
1.00717
1.01097
1.00535
1.00976
1.00491
1.0085
1.00422
1.00906
1.00237
1.01055
1.00114
1.01172
1.00399
1.01304
1.00812
1.01505
1.0077
1.0186
1.00931
1.02087
1.01198
1.01885
1.01561
1.022
1.01578
1.02486
1.01502
1.02169
1.01109
1.0204
1.00791
1.02382
1.01072
1.02519
1.01587
1.02778
1.01454
1.03043
1.02313
1.03317
1.02602
1.03349
1.02647
1.03529
1.03032
1.03389
1.01199
1.01605
0.998566
0.998813
1.00184
0.992501
1.00066
0.992793
1.00252
0.998994
1.0061
0.997107
1.00889
1.00141
1.00914
1.0023
1.00931
1.0014
1.00707
1.00218
1.0082
1.00437
1.00888
1.00359
1.00832
1.0046
1.00836
1.00373
1.00858
1.00372
1.01058
1.00737
1.01107
1.00757
1.00973
1.00536
1.01048
1.00441
1.00977
1.00333
1.00831
1.00339
1.00857
1.00248
1.01043
1
1.01169
1.00158
1.01738
1.00342
1.01492
1.00819
1.01916
1.00968
1.02073
1.00576
1.01995
1.0064
1.02247
1.00757
1.02514
1.012
1.02266
1.00854
1.02208
1.00823
1.02278
1.01097
1.02415
1.01548
1.02896
1.0149
1.03163
1.02169
1.03267
1.02644
1.03436
1.02565
1.03659
1.03046
1.03326
1.01318
1.01649
0.998358
0.997691
0.989619
0.997716
0.991238
1.00016
0.994269
1.00391
0.997974
1.00148
1.00233
1.00517
1.00345
1.00492
1.00286
1.00553
1.00417
1.00781
1.00523
1.00715
1.00362
1.00723
1.00505
1.00787
1.00461
1.00884
1.00233
1.0113
1.00655
1.01013
1.00736
1.01089
1.00499
1.00836
1.0068
1.01033
1.00537
1.00998
1.0059
1.00813
1.00536
1.00806
1.00237
1.01003
1.00001
1.01204
1.00415
1.01423
1.00653
1.01669
1.00866
1.01801
1.00971
1.02039
1.01368
1.01929
1.01637
1.02177
1.01596
1.02638
1.01456
1.02033
1.0094
1.02087
1.01022
1.02288
1.0104
1.02529
1.01463
1.03041
1.01412
1.03158
1.02107
1.03236
1.02597
1.0344
1.02484
1.03755
1.02963
1.03279
1.01335
1.01678
0.99968
0.998189
1.0017
0.992574
1.00014
0.99247
1.00201
0.998031
1.00492
0.997485
1.00791
0.999293
1.00923
1.00128
1.0085
1.00159
1.00683
1.00442
1.00678
1.00385
1.00806
1.00484
1.00887
1.00326
1.0081
1.0049
1.00741
1.00403
1.0088
1.00442
1.01117
1.00761
1.01099
1.00725
1.01086
1.00558
1.01011
1.00582
1.00995
1.00238
1.00772
1.00328
1.00789
1.0018
1.01044
0.999138
1.01228
1.00089
1.01572
1.0039
1.0157
1.00845
1.01984
1.00946
1.02048
1.00523
1.01851
1.00763
1.02094
1.00688
1.0248
1.00901
1.02243
1.01079
1.02409
1.00872
1.02293
1.00975
1.02564
1.01351
1.03125
1.01622
1.03216
1.02314
1.032
1.02515
1.03448
1.02405
1.03848
1.02963
1.03227
1.01381
1.01717
0.997709
0.999154
0.992845
0.997165
0.991307
0.998808
0.992262
1.00324
0.997622
1.0014
1.00102
1.00411
1.00207
1.006
1.00368
1.00519
1.00358
1.0061
1.00523
1.00702
1.00515
1.00822
1.00394
1.00816
1.00532
1.00895
1.00485
1.00813
1.00273
1.01112
1.00703
1.00958
1.00785
1.01102
1.00527
1.00941
1.00644
1.01
1.00456
1.00939
1.00588
1.00743
1.00492
1.00789
1.00113
1.01147
1.00055
1.01173
1.00332
1.01402
1.00764
1.01622
1.00853
1.01814
1.00957
1.02036
1.01291
1.02066
1.01414
1.02247
1.01558
1.02417
1.01488
1.02079
1.01149
1.02007
1.01029
1.02284
1.01093
1.02463
1.01253
1.03134
1.01755
1.0316
1.02131
1.0317
1.02495
1.03479
1.02274
1.03999
1.03049
1.03195
1.01491
1.01748
0.999855
0.995291
1.00221
0.993051
0.99442
0.992184
1.00172
0.99813
1.00445
0.997571
1.00728
0.998182
1.00842
1.00161
1.00671
1.00051
1.00571
1.00427
1.00582
1.00471
1.00671
1.00279
1.00758
1.00472
1.00808
1.00451
1.00742
1.00431
1.00882
1.00403
1.00893
1.00472
1.01027
1.00771
1.01093
1.00775
1.00925
1.00553
1.00996
1.00467
1.00921
1.00354
1.00731
1.00417
1.0078
1.00043
1.01167
0.998871
1.01326
1.00221
1.01508
1.00365
1.01587
1.00926
1.0182
1.00915
1.02055
1.00981
1.01768
1.00643
1.01985
1.00902
1.02419