/*--------------------------------*- C++ -*----------------------------------*\
| =========                 |                                                 |
| \\      /  F ield         | OpenFOAM: The Open Source CFD Toolbox           |
|  \\    /   O peration     | Version:  2206                                  |
|   \\  /    A nd           | Website:  www.openfoam.com                      |
|    \\/     M anipulation  |                                                 |
\*---------------------------------------------------------------------------*/
FoamFile
{
    version     2.0;
    format      ascii;
    arch        "LSB;label=32;scalar=64";
    class       volScalarField;
    location    "210";
    object      TMean;
}
// * * * * * * * * * * * * * * * * * * * * * * * * * * * * * * * * * * * * * //

dimensions      [0 0 0 1 0 0 0];

internalField   nonuniform List<scalar> 
93840
(
0.985349
1.03276
0.992697
1.0823
1.01802
1.00795
0.920917
1.06746
1.00429
1.01039
1.00273
1.0179
1.04043
0.973994
1.01128
0.99973
1.02662
1.03962
1.0517
0.983937
1.01429
1.02288
1.00017
1.02961
0.984649
1.08057
1.00871
1.00573
1.00731
1.02896
0.991414
1.0244
0.995979
1.0493
1.00892
1.00097
1.02179
1.00121
1.03672
1.01314
1.03225
0.986285
1.04271
1.0129
1.00234
1.00058
1.02236
1.00044
1.03824
1.00789
1.02467
1.01607
1.03703
1.00846
1.00047
1.0213
0.995549
1.03219
1.01286
1.03315
1.01109
1.03251
1.01759
1.02916
1.01098
1.00387
0.999886
1.0203
0.995498
1.02617
1.00355
1.0285
1.0124
1.02404
1.01851
1.0302
1.00914
1.00498
1.02566
0.995673
1.02915
1.00458
1.02325
1.00653
1.02213
1.01145
1.02931
1.0194
1.0254
1.01026
1.00473
1.00269
1.02465
0.995752
1.02271
1.0038
1.02135
1.00274
1.0211
1.01582
1.0217
1.0169
1.02845
1.00899
1.00631
1.02606
0.998344
1.0305
1.00612
1.02307
1.00639
1.01952
1.00692
1.0198
1.01143
1.02716
1.01949
1.02409
1.00975
1.00586
1.00208
1.02575
0.99858
1.02521
1.00702
1.02106
1.00458
1.01907
1.00542
1.01807
1.01461
1.02089
1.01609
1.02701
1.00897
1.0073
1.02464
0.998369
1.02903
1.0077
1.02371
1.00831
1.02094
1.00786
1.01867
1.00761
1.01864
1.0111
1.02585
1.01956
1.02338
1.00953
1.00656
1.00117
1.02496
0.998409
1.0241
1.00631
1.02032
1.00671
1.01988
1.00607
1.01775
1.00553
1.01632
1.01383
1.02057
1.01558
1.02594
1.00909
1.00797
1.02277
0.99835
1.02687
1.00719
1.02134
1.00752
1.02
1.00774
1.01989
1.00853
1.01832
1.00785
1.01773
1.011
1.02465
1.01975
1.02273
1.0094
1.00724
1.00021
1.02306
0.998593
1.02275
1.00536
1.0191
1.0063
1.01814
1.0068
1.01906
1.0066
1.01699
1.00588
1.01542
1.01317
1.02022
1.01554
1.02491
1.00925
1.00867
1.02128
0.997616
1.02453
1.00698
1.02031
1.0081
1.01927
1.00688
1.01916
1.00762
1.0195
1.00898
1.01815
1.00819
1.01675
1.0108
1.02342
1.01994
1.0222
1.00936
1.00781
0.998475
1.02084
0.998477
1.02064
1.00433
1.01758
1.00544
1.01713
1.00625
1.0174
1.0069
1.0184
1.00695
1.01625
1.00618
1.01496
1.0128
1.01997
1.01551
1.024
1.00949
1.0095
1.01947
0.99589
1.02157
1.00553
1.01802
1.00672
1.0172
1.00669
1.01863
1.00651
1.01887
1.00788
1.01901
1.00925
1.01806
1.00798
1.01613
1.01074
1.02249
1.02012
1.02167
1.00949
1.0081
0.996948
1.01809
0.997128
1.0173
1.00263
1.01493
1.00383
1.01547
1.0052
1.01643
1.00624
1.01613
1.00725
1.01775
1.00728
1.01562
1.00673
1.01444
1.01247
1.01976
1.01565
1.02326
1.00978
1.01028
1.01862
0.994915
1.01853
1.00347
1.01535
1.00485
1.01487
1.00521
1.01608
1.00612
1.01803
1.00738
1.01844
1.00812
1.01876
1.0094
1.01799
1.00815
1.01566
1.01081
1.0216
1.0202
1.02114
1.00938
1.00772
0.997588
1.01738
0.997171
1.01464
1.00141
1.01271
1.0026
1.01336
1.00324
1.01459
1.00536
1.01527
1.00682
1.0159
1.00723
1.01714
1.00758
1.0151
1.00698
1.01394
1.01221
1.01951
1.01561
1.02253
1.00951
1.00716
1.01976
0.99671
1.01818
1.00338
1.01453
1.00464
1.01417
1.00485
1.01433
1.0049
1.01532
1.00663
1.01767
1.00737
1.01779
1.00864
1.01846
1.00984
1.01748
1.00852
1.01538
1.01079
1.02092
1.02011
1.0206
1.01063
1.0089
0.999354
1.01833
0.998945
1.01436
1.00278
1.01313
1.0039
1.01325
1.00284
1.01295
1.00322
1.01397
1.00556
1.01507
1.00678
1.01546
1.00727
1.0169
1.00792
1.01517
1.00694
1.01342
1.0118
1.01939
1.0155
1.02135
1.01133
1.00917
1.02122
0.999074
1.01874
1.00497
1.01544
1.00611
1.01493
1.00563
1.014
1.00485
1.01391
1.00531
1.01497
1.00634
1.01704
1.00793
1.01764
1.00875
1.01816
1.0098
1.01712
1.0086
1.01521
1.01055
1.02047
1.01994
1.01988
1.01042
1.0102
1.00134
1.01966
1.00109
1.01565
1.00493
1.01393
1.00533
1.01373
1.00439
1.01327
1.0031
1.01252
1.00341
1.01353
1.00554
1.01479
1.00687
1.01523
1.00728
1.01663
1.00825
1.01501
1.00717
1.0134
1.01141
1.01937
1.01549
1.02124
1.01124
1.00998
1.02273
1.00204
1.02028
1.00721
1.01654
1.00757
1.01589
1.00743
1.01523
1.00604
1.01403
1.00523
1.01359
1.00517
1.01464
1.00639
1.01671
1.00786
1.01739
1.00833
1.01776
1.0098
1.01686
1.00839
1.01498
1.01045
1.02004
1.0196
1.0198
1.01016
1.01077
1.00287
1.02144
1.00412
1.01758
1.00695
1.01531
1.00773
1.01536
1.00621
1.01396
1.00461
1.0132
1.00339
1.01241
1.00357
1.01312
1.00562
1.0146
1.00695
1.01501
1.0077
1.0163
1.00861
1.01504
1.00711
1.01316
1.01096
1.01925
1.0153
1.02115
1.01139
1.01048
1.02325
1.00434
1.02202
1.01015
1.01829
1.00987
1.01789
1.00981
1.01653
1.0078
1.01536
1.00619
1.01387
1.00534
1.01331
1.00515
1.01432
1.00645
1.01625
1.00796
1.01707
1.00866
1.01749
1.00966
1.01681
1.00849
1.01472
1.01028
1.01963
1.01903
1.01983
1.01057
1.01109
1.00399
1.02232
1.00589
1.0189
1.00891
1.01703
1.01008
1.01674
1.00843
1.01575
1.00653
1.01402
1.00502
1.01309
1.00373
1.01221
1.00389
1.01278
1.00569
1.01444
1.00711
1.01479
1.00783
1.01595
1.00885
1.01494
1.00724
1.01316
1.01071
1.01932
1.01481
1.02056
1.01201
1.01087
1.02396
1.00641
1.02257
1.01173
1.01946
1.0115
1.01925
1.01149
1.01832
1.01014
1.01675
1.00804
1.01526
1.00656
1.01352
1.00542
1.01312
1.00532
1.01396
1.00663
1.0159
1.00813
1.01664
1.00878
1.01729
1.00969
1.01665
1.00838
1.01451
1.01014
1.01941
1.01824
1.0201
1.0078
1.01136
1.00499
1.02252
1.00714
1.02027
1.01063
1.01813
1.01158
1.01764
1.01055
1.01721
1.00877
1.01587
1.00701
1.01387
1.00556
1.01297
1.00419
1.01184
1.00406
1.01244
1.00585
1.01431
1.00716
1.01477
1.00807
1.01554
1.009
1.01495
1.00739
1.01302
1.01038
1.01947
1.01452
1.02454
1.00898
1.01107
1.02377
1.00734
1.02233
1.01282
1.02032
1.01238
1.01951
1.01184
1.01907
1.01139
1.01836
1.0104
1.01659
1.00831
1.01514
1.00676
1.01364
1.00557
1.013
1.00548
1.01358
1.00645
1.01549
1.00804
1.01624
1.00883
1.0171
1.00967
1.01653
1.00838
1.01433
1.01002
1.01936
1.01626
1.02312
1.00903
1.0116
1.00478
1.02114
1.0075
1.02083
1.01101
1.01778
1.01116
1.01638
1.01068
1.01775
1.01068
1.01712
1.00924
1.01597
1.00747
1.01355
1.006
1.01259
1.00455
1.01163
1.00424
1.01238
1.00605
1.01414
1.00745
1.01465
1.00831
1.01545
1.00916
1.01489
1.00757
1.01299
1.01007
1.01937
1.01392
1.02287
1.00999
1.01135
1.02189
1.00605
1.02061
1.01223
1.01916
1.01091
1.01707
1.0096
1.01756
1.0111
1.01865
1.01172
1.01823
1.01054
1.01636
1.0087
1.01515
1.00695
1.01364
1.00542
1.01296
1.00549
1.01353
1.00649
1.01531
1.00824
1.01595
1.00879
1.01666
1.00971
1.0164
1.00833
1.01421
1.0097
1.01933
1.0168
1.0217
1.01008
1.01189
1.00305
1.0184
1.00645
1.01883
1.00879
1.01517
1.00819
1.01327
1.00873
1.01586
1.01063
1.01745
1.01107
1.01718
1.00967
1.01587
1.00789
1.0135
1.00639
1.01259
1.00484
1.01135
1.00441
1.01204
1.00616
1.01398
1.0076
1.01462
1.0084
1.01555
1.00926
1.01497
1.00755
1.01303
1.00985
1.01931
1.01429
1.02235
1.00726
1.01153
1.01862
1.00308
1.01728
1.00962
1.01585
1.0077
1.01347
1.00677
1.01435
1.00872
1.01674
1.01106
1.01837
1.01152
1.01776
1.01081
1.01633
1.00891
1.01494
1.00704
1.01344
1.00558
1.01274
1.00554
1.01334
1.00665
1.01501
1.00833
1.01576
1.00881
1.01653
1.00965
1.01635
1.00829
1.01418
1.00948
1.01941
1.01669
1.02499
1.00722
1.01201
1.00133
1.01479
1.00414
1.01528
1.00572
1.01213
1.00543
1.01111
1.00653
1.01271
1.00821
1.01541
1.01068
1.01735
1.01136
1.01728
1.01011
1.01583
1.00818
1.01344
1.00675
1.01248
1.00525
1.01129
1.00459
1.01188
1.00626
1.01375
1.00766
1.01453
1.00841
1.01549
1.00928
1.01498
1.00751
1.01309
1.00949
1.01925
1.01272
1.02463
1.00864
1.01176
1.01623
1.00115
1.01449
1.00662
1.01277
1.00548
1.0116
1.00627
1.01257
1.00657
1.01366
1.00849
1.01618
1.01052
1.01818
1.01167
1.01767
1.01089
1.01591
1.00925
1.01477
1.00718
1.01298
1.0058
1.01252
1.00554
1.01284
1.00677
1.01491
1.00842
1.01552
1.00883
1.01632
1.00968
1.01629
1.00825
1.01417
1.00938
1.01933
1.01597
1.0234
1.00845
1.0123
1.00018
1.01259
1.00256
1.01246
1.00394
1.01071
1.00493
1.01125
1.00595
1.0112
1.00632
1.01244
1.00802
1.01509
1.01084
1.01694
1.0117
1.01726
1.01048
1.01574
1.00866
1.01333
1.00711
1.01243
1.0055
1.01124
1.00482
1.01186
1.00631
1.01361
1.00766
1.01445
1.00846
1.01539
1.00923
1.01502
1.00752
1.01314
1.00921
1.01916
1.01369
1.02274
1.00962
1.0121
1.01489
1.00046
1.01268
1.00453
1.01154
1.0055
1.01183
1.00718
1.0121
1.00636
1.01222
1.00647
1.01325
1.00832
1.01577
1.0106
1.01742
1.01188
1.01704
1.01157
1.01578
1.00915
1.01464
1.00744
1.01288
1.00587
1.01219
1.00551
1.01265
1.00669
1.01464
1.00849
1.01534
1.00889
1.01609
1.00967
1.01625
1.00817
1.01411
1.0092
1.01931
1.0165
1.022
1.00934
1.01267
1.00052
1.01147
1.00208
1.01113
1.00417
1.01131
1.00614
1.01237
1.00663
1.01172
1.00628
1.01128
1.00639
1.01233
1.00795
1.01478
1.01095
1.01688
1.01213
1.01701
1.01077
1.01566
1.00911
1.01331
1.00728
1.01235
1.00567
1.01127
1.00508
1.0118
1.00645
1.0135
1.0078
1.01434
1.00847
1.01539
1.00919
1.01506
1.00752
1.01317
1.00887
1.01921
1.01398
1.0223
1.0072
1.01238
1.01486
1.00136
1.01273
1.00475
1.01271
1.00714
1.01296
1.00851
1.01299
1.0077
1.01209
1.0065
1.01189
1.00635
1.01268
1.00851
1.01505
1.01105
1.0172
1.01226
1.01708
1.01164
1.01577
1.00928
1.01447
1.00764
1.01274
1.00609
1.01209
1.0054
1.01242
1.0067
1.0144
1.00852
1.01514
1.00888
1.01596
1.00963
1.01626
1.00812
1.01414
1.00908
1.01927
1.01645
1.02483
1.00672
1.01285
1.00198
1.01274
1.00401
1.01186
1.00612
1.01282
1.00772
1.01345
1.0081
1.0131
1.00735
1.01184
1.00655
1.01116
1.00675
1.0119
1.00808
1.01468
1.01098
1.01673
1.01226
1.01698
1.01099
1.01565
1.00937
1.01331
1.00738
1.01208
1.00589
1.01113
1.00524
1.01174
1.0065
1.01344
1.00781
1.01433
1.00847
1.01522
1.0092
1.0151
1.0075
1.01326
1.00863
1.01924
1.01258
1.02424
1.0083
1.01257
1.0159
1.00338
1.01429
1.00618
1.01461
1.00874
1.01404
1.00962
1.01419
1.00918
1.01298
1.00782
1.01202
1.00654
1.01164
1.00668
1.01251
1.0086
1.01495
1.01102
1.01702
1.01217
1.01695
1.01171
1.0156
1.00944
1.01439
1.00784
1.01276
1.00621
1.012
1.00553
1.0122
1.00679
1.01423
1.00855
1.01506
1.00887
1.01595
1.00956
1.01622
1.00804
1.01401
1.00888
1.01912
1.01576
1.02336
1.00755
1.01306
1.00361
1.01411
1.00532
1.01286
1.0081
1.01388
1.00903
1.01413
1.00939
1.01411
1.00878
1.0133
1.00773
1.01181
1.00693
1.01103
1.00687
1.01164
1.00812
1.01442
1.01102
1.01673
1.01241
1.0169
1.01116
1.01561
1.00954
1.01329
1.00749
1.01198
1.00604
1.01096
1.00538
1.01156
1.00654
1.01335
1.0078
1.01427
1.00847
1.01514
1.00918
1.01516
1.00753
1.0133
1.00861
1.01916
1.01335
1.02275
1.00916
1.01281
1.01637
1.00489
1.01534
1.00755
1.01618
1.00965
1.01477
1.0102
1.01465
1.00992
1.01412
1.00916
1.01297
1.00815
1.01196
1.00679
1.01153
1.00687
1.01221
1.00862
1.01465
1.01103
1.01685
1.01232
1.01689
1.01179
1.01564
1.00952
1.01431
1.00798
1.01272
1.00629
1.01181
1.00571
1.01207
1.00679
1.01403
1.00855
1.01494
1.0088
1.01589
1.00954
1.01616
1.00807
1.0139
1.00881
1.01901
1.01618
1.0229
1.00539
1.01326
1.00482
1.0144
1.00575
1.01402
1.00959
1.01413
1.00967
1.01388
1.00935
1.01407
1.00964
1.0142
1.00926
1.01326
1.00801
1.01177
1.00704
1.01096
1.00697
1.01161
1.00818
1.0142
1.01103
1.0165
1.01239
1.01686
1.01135
1.01553
1.00971
1.01319
1.0076
1.01193
1.00622
1.01086
1.00542
1.01139
1.00656
1.01323
1.00782
1.01419
1.00846
1.01505
1.00918
1.01516
1.0076
1.01329
1.00846
1.01917
1.01356
1.02492
1.00691
1.013
1.01704
1.00605
1.01556
1.00842
1.01671
1.00955
1.01485
1.00974
1.01373
1.00962
1.0143
1.01001
1.01385
1.00932
1.0127
1.00843
1.01189
1.00711
1.01128
1.00687
1.01206
1.00868
1.01436
1.01102
1.0168
1.01235
1.01681
1.01179
1.01561
1.00961
1.01413
1.00812
1.01272
1.00637
1.0117
1.0058
1.01191
1.00676
1.0139
1.00853
1.01484
1.00877
1.01572
1.00953
1.01607
1.00814
1.01384
1.00868
1.01885
1.01506
1.02439
1.00652
1.01353
1.00554
1.01492
1.00694
1.0151
1.00985
1.01345
1.00952
1.0128
1.00851
1.01327
1.00933
1.01398
1.00978
1.014
1.00976
1.01314
1.00839
1.01177
1.00728
1.01095
1.0072
1.01145
1.00827
1.01401
1.01105
1.01628
1.01252
1.01671
1.01157
1.01547
1.00985
1.01321
1.00766
1.0119
1.00631
1.0108
1.00548
1.01133
1.00655
1.01315
1.00783
1.01412
1.00849
1.01503
1.00918
1.0151
1.00776
1.01332
1.00836
1.01913
1.01309
1.02352
1.00783
1.01322
1.01684
1.00586
1.01479
1.00854
1.01616
1.00876
1.01432
1.00867
1.01263
1.00897
1.01325
1.00953
1.0137
1.01018
1.01371
1.00971
1.0128
1.0085
1.01166
1.00736
1.01118
1.00697
1.01168
1.00866
1.01407
1.01097
1.01674
1.01241
1.01685
1.01182
1.01554
1.00979
1.01407
1.00817
1.01269
1.00643
1.0115
1.00585
1.01181
1.00674
1.01376
1.00852
1.01471
1.00872
1.01565
1.00956
1.0159
1.00813
1.0138
1.00857
1.01867
1.01593
1.02307
1.00711
1.01375
1.00596
1.01444
1.0066
1.01465
1.00895
1.01224
1.00887
1.01148
1.00775
1.01219
1.00836
1.01294
1.0094
1.01387
1.01014
1.01399
1.00985
1.01318
1.00875
1.0117
1.00742
1.01079
1.00742
1.01146
1.00835
1.01392
1.01111
1.01614
1.0126
1.01666
1.0117
1.01542
1.00997
1.01322
1.00774
1.01188
1.00643
1.01083
1.00547
1.01119
1.00656
1.01305
1.00787
1.01406
1.00849
1.01496
1.00925
1.01519
1.0078
1.01336
1.00822
1.01906
1.0137
1.0224
1.00835
1.01345
1.01625
1.00569
1.01466
1.00836
1.01525
1.0079
1.01354
1.00767
1.01204
1.00827
1.01205
1.00873
1.01286
1.00964
1.01341
1.01029
1.01349
1.00997
1.01276
1.00865
1.01163
1.00761
1.01113
1.00701
1.0114
1.00872
1.01393
1.01094
1.01659
1.01243
1.01677
1.0118
1.01549
1.00985
1.01401
1.0082
1.01264
1.00646
1.01134
1.00585
1.01176
1.00673
1.0136
1.00852
1.01465
1.00868
1.01555
1.00949
1.01589
1.00812
1.01372
1.00846
1.01855
1.01601
1.02204
1.00764
1.01399
1.0058
1.01357
1.00619
1.01392
1.00789
1.01112
1.00822
1.0107
1.00782
1.01168
1.00779
1.01212
1.00855
1.01274
1.0095
1.01363
1.0103
1.01388
1.00981
1.01306
1.00894
1.01157
1.00766
1.01073
1.00756
1.01145
1.00839
1.01376
1.01116
1.01607
1.01259
1.01666
1.01186
1.0154
1.01006
1.0132
1.00783
1.01184
1.00653
1.01085
1.00554
1.01106
1.00655
1.01296
1.00789
1.01397
1.00852
1.01491
1.00926
1.01521
1.00783
1.01335
1.00812
1.01895
1.0141
1.02146
1.00895
1.01373
1.01497
1.0047
1.0134
1.0076
1.01408
1.00716
1.01291
1.00741
1.0124
1.00818
1.01174
1.00826
1.0117
1.00879
1.01246
1.00988
1.01328
1.01043
1.01345
1.01029
1.01275
1.00898
1.0116
1.00765
1.01098
1.00719
1.01127
1.00868
1.01381
1.01095
1.01642
1.01248
1.01673
1.0119
1.01547
1.00993
1.01396
1.00824
1.01253
1.00648
1.01127
1.00586
1.01169
1.00674
1.01349
1.0085
1.01454
1.00866
1.01546
1.00935
1.01587
1.00816
1.01369
1.00838
1.01851
1.01603
1.02177
1.00606
1.01425
1.00552
1.01243
1.00575
1.01271
1.00669
1.01032
1.00797
1.01084
1.00877
1.01178
1.00817
1.0117
1.00804
1.0117
1.00873
1.01263
1.00957
1.01355
1.01041
1.01384
1.00998
1.01302
1.00911
1.0116
1.00781
1.01069
1.0076
1.01144
1.00841
1.01368
1.01112
1.01604
1.01262
1.0166
1.01191
1.01538
1.01014
1.01318
1.00793
1.01188
1.0066
1.01082
1.00554
1.01096
1.00652
1.01282
1.00791
1.0139
1.00852
1.01483
1.00935
1.01518
1.00785
1.01331
1.00806
1.01888
1.01404
1.02349
1.00715
1.01397
1.01432
1.00447
1.01301
1.00701
1.01316
1.00686
1.01278
1.00795
1.0133
1.00855
1.01227
1.00829
1.01144
1.00844
1.01155
1.00887
1.0122
1.00997
1.013
1.01049
1.01343
1.01041
1.01272
1.00915
1.01157
1.00783
1.011
1.00725
1.0112
1.00866
1.01369
1.01097
1.01629
1.01253
1.01668
1.01198
1.01544
1.00999
1.01388
1.0083
1.01247
1.00651
1.01121
1.00587
1.01154
1.00674
1.0134
1.00848
1.01445
1.00866
1.01538
1.00932
1.01589
1.0082
1.01372
1.00825
1.0184
1.01504
1.02332
1.00668
1.01448
1.00514
1.01138
1.00511
1.01147
1.00613
1.01024
1.00836
1.01165
1.00994
1.0123
1.0094
1.01201
1.00866
1.01158
1.00832
1.01159
1.00885
1.01249
1.00973
1.01349
1.01054
1.01375
1.01014
1.01292
1.0092
1.01159
1.00792
1.01062
1.00761
1.01135
1.0084
1.01348
1.01106
1.01595
1.01263
1.01657
1.01198
1.01537
1.01024
1.01316
1.00795
1.01185
1.00664
1.01076
1.00558
1.01092
1.00648
1.01273
1.00792
1.01381
1.00851
1.01477
1.00935
1.01519
1.00786
1.01326
1.00798
1.01869
1.01353
1.0225
1.00761
1.01424
1.01311
1.0037
1.01178
1.00618
1.01254
1.00705
1.01316
1.00889
1.01417
1.00937
1.01326
1.00901
1.01205
1.00866
1.01114
1.00863
1.0112
1.00898
1.0121
1.00995
1.01292
1.01057
1.01337
1.01057
1.01267
1.00932
1.01157
1.00792
1.01101
1.00729
1.01118
1.00869
1.01357
1.01101
1.01616
1.01254
1.01663
1.01201
1.01538
1.01003
1.01383
1.00834
1.01244
1.00655
1.01111
1.00588
1.01143
1.00671
1.01328
1.00844
1.01435
1.00864
1.01528
1.00927
1.01586
1.00821
1.01373
1.00823
1.01827
1.01541
1.02233
1.00739
1.0147
1.00491
1.01065
1.00518
1.0109
1.00618
1.01064
1.00913
1.01258
1.01092
1.01306
1.0108
1.01273
1.00982
1.0119
1.00882
1.01154
1.0085
1.01151
1.00896
1.0123
1.0099
1.01335
1.01068
1.01359
1.01032
1.01287
1.00928
1.0116
1.00802
1.01062
1.00768
1.01127
1.00838
1.01337
1.01103
1.01588
1.01264
1.01655
1.01202
1.0153
1.01032
1.01314
1.00803
1.01182
1.00666
1.01075
1.00561
1.01086
1.00644
1.01262
1.00793
1.01371
1.0085
1.01472
1.00934
1.01517
1.00789
1.0132
1.0079
1.01854
1.01381
1.02201
1.00597
1.01449
1.01256
1.00379
1.0115
1.00595
1.01249
1.00779
1.01394
1.00995
1.01491
1.01042
1.01449
1.01
1.0131
1.00929
1.01194
1.00906
1.01111
1.00879
1.01126
1.00894
1.01207
1.00997
1.01285
1.01059
1.0133
1.01066
1.01268
1.00946
1.01155
1.008
1.01094
1.00735
1.01123
1.00872
1.01348
1.01096
1.01608
1.01256
1.01657
1.01207
1.0154
1.01009
1.0138
1.0084
1.01236
1.0066
1.01104
1.00587
1.01135
1.00668
1.01319
1.00844
1.01428
1.00861
1.0152
1.00927
1.01583
1.00823
1.01375
1.00819
1.01818
1.01556
1.02416
1.00554
1.01494
1.00496
1.01025
1.00517
1.01043
1.00658
1.01138
1.01007
1.01336
1.01159
1.01377
1.01182
1.01343
1.01102
1.01272
1.0101
1.01188
1.00898
1.01129
1.00869
1.01144
1.00911
1.01215
1.00988
1.01318
1.01079
1.01347
1.01044
1.01277
1.00937
1.01158
1.00812
1.01063
1.00773
1.0111
1.00837
1.01329
1.01099
1.0158
1.0126
1.0165
1.01208
1.01529
1.01037
1.01313
1.00808
1.01186
1.00669
1.01072
1.0056
1.01078
1.00642
1.01253
1.00793
1.01364
1.00849
1.01462
1.00933
1.01514
1.00792
1.01315
1.00788
1.01837
1.01292
1.02334
1.00668
1.01478
1.01222
1.00415
1.01143
1.00609
1.01296
1.00883
1.01481
1.01073
1.0153
1.01126
1.01518
1.01095
1.01428
1.0104
1.01309
1.00973
1.01193
1.00937
1.01102
1.00893
1.01103
1.00906
1.01186
1.0101
1.01279
1.01069
1.01331
1.01078
1.01262
1.00952
1.01153
1.00808
1.01084
1.00743
1.01118
1.00867
1.01339
1.01094
1.016
1.01262
1.01654
1.01211
1.01537
1.01015
1.01374
1.00842
1.01232
1.00663
1.01097
1.0059
1.01125
1.00669
1.01308
1.0084
1.0142
1.0086
1.01512
1.00927
1.01581
1.00827
1.0137
1.0082
1.01805
1.01513
1.02313
1.00613
1.0152
1.00523
1.0104
1.00584
1.01063
1.00746
1.01225
1.01086
1.0137
1.01189
1.01413
1.01233
1.01411
1.01212
1.01349
1.01134
1.01265
1.0103
1.01169
1.00919
1.01125
1.00878
1.0113
1.00917
1.01216
1.00998
1.01304
1.01087
1.0134
1.01052
1.01281
1.00951
1.01156
1.00819
1.01065
1.00773
1.01104
1.0084
1.0132
1.01095
1.01574
1.01257
1.01646
1.01212
1.01526
1.01043
1.01314
1.00812
1.01181
1.00667
1.01069
1.0056
1.01065
1.00639
1.01242
1.00793
1.01356
1.00849
1.01453
1.00931
1.01512
1.00798
1.01304
1.00786
1.01818
1.01352
1.02218
1.00722
1.01506
1.01195
1.00444
1.01116
1.00653
1.01371
1.00988
1.01542
1.01109
1.01548
1.01178
1.01537
1.01162
1.01501
1.01116
1.01422
1.0107
1.01302
1.00982
1.01197
1.00943
1.01098
1.00903
1.011
1.00911
1.01175
1.0101
1.01272
1.01071
1.01324
1.01085
1.01265
1.00958
1.01152
1.00814
1.01075
1.00749
1.01109
1.00865
1.01332
1.0109
1.01591
1.01268
1.01649
1.01215
1.01533
1.01019
1.01372
1.00846
1.01227
1.00668
1.0109
1.00592
1.01119
1.00666
1.01296
1.00838
1.0141
1.00857
1.01496
1.00928
1.01575
1.00831
1.01362
1.00822
1.01785
1.01556
1.02202
1.00664
1.01543
1.00549
1.01053
1.00626
1.01087
1.00841
1.01292
1.01132
1.01367
1.01194
1.01415
1.01244
1.01452
1.01254
1.01424
1.01246
1.0136
1.0114
1.01262
1.01057
1.01154
1.0094
1.01118
1.00891
1.01116
1.00925
1.01212
1.00997
1.01299
1.01097
1.01341
1.01058
1.0128
1.0096
1.01159
1.00825
1.01071
1.00777
1.01102
1.0084
1.0131
1.01093
1.01564
1.01255
1.01642
1.01218
1.01524
1.01047
1.01313
1.00816
1.01181
1.00671
1.01065
1.0056
1.0106
1.00637
1.01226
1.00794
1.01347
1.00851
1.0145
1.00928
1.01511
1.00805
1.01295
1.00783
1.018
1.01382
1.02124
1.00781
1.01532
1.01218
1.0053
1.01211
1.0074
1.01453
1.01068
1.01566
1.01106
1.01536
1.01171
1.01512
1.01195
1.01516
1.0118
1.01459
1.01141
1.01407
1.0111
1.01293
1.01018
1.0119
1.00961
1.01096
1.00907
1.01101
1.00915
1.01166
1.01018
1.01267
1.01073
1.01319
1.01084
1.01267
1.00964
1.01151
1.00824
1.0107
1.0075
1.01106
1.00863
1.01323
1.01089
1.01582
1.01272
1.01643
1.01216
1.01531
1.01024
1.01368
1.00847
1.01223
1.00671
1.01085
1.00592
1.0111
1.00666
1.01289
1.00835
1.01401
1.00854
1.01487
1.00928
1.0157
1.00835
1.01354
1.00819
1.01765
1.01569
1.02175
1.00522
1.01562
1.00626
1.01134
1.0072
1.0113
1.00934
1.01333
1.01146
1.01335
1.01172
1.01363
1.01203
1.0143
1.01257
1.01461
1.01281
1.01423
1.0127
1.01349
1.01156
1.01244
1.01068
1.01156
1.0095
1.01112
1.00897
1.01107
1.00928
1.01193
1.01
1.01292
1.01099
1.01341
1.0107
1.01279
1.00969
1.0116
1.00831
1.01071
1.00782
1.01097
1.00838
1.01303
1.0109
1.01559
1.01254
1.0164
1.01223
1.01522
1.01051
1.01313
1.00821
1.01178
1.00673
1.01062
1.0056
1.0105
1.00636
1.01216
1.00793
1.01341
1.00852
1.01441
1.00928
1.01506
1.00817
1.01291
1.00782
1.01784
1.01384
1.0231
1.00618
1.01553
1.01223
1.00616
1.0124
1.00789
1.01504
1.01102
1.01549
1.01069
1.01493
1.01122
1.01463
1.01167
1.01476
1.01185
1.01446
1.01199
1.0146
1.01171
1.0137
1.0115
1.01287
1.01036
1.0119
1.00975
1.011
1.00914
1.01095
1.00917
1.01171
1.0102
1.01265
1.01074
1.01313
1.01086
1.01269
1.00968
1.01148
1.00828
1.01068
1.00753
1.01103
1.00862
1.01316
1.01085
1.01576
1.01273
1.01637
1.0122
1.01527
1.01027
1.01366
1.00848
1.0122
1.00675
1.0108
1.00593
1.01103
1.00662
1.0128
1.00833
1.01392
1.00852
1.0148
1.00929
1.01563
1.00837
1.01351
1.00814
1.01746
1.01476
1.02308
1.00593
1.01581
1.00701
1.01134
1.00744
1.0117
1.01008
1.01341
1.01128
1.01282
1.01135
1.01295
1.0116
1.01376
1.01218
1.01423
1.01292
1.01453
1.01312
1.01412
1.01285
1.01358
1.01172
1.01247
1.01084
1.01156
1.00955
1.01098
1.00909
1.01101
1.00931
1.01186
1.01002
1.01282
1.01098
1.0134
1.01076
1.01274
1.00977
1.01157
1.00839
1.01067
1.00783
1.01091
1.00836
1.01298
1.01085
1.01554
1.01254
1.01636
1.01226
1.01521
1.01056
1.01313
1.00824
1.01173
1.00674
1.01056
1.00555
1.01046
1.00634
1.01206
1.00792
1.01332
1.00851
1.0143
1.00928
1.01502
1.00821
1.01284
1.00782
1.0177
1.0134
1.02201
1.00679
1.0158
1.01241
1.00698
1.01264
1.00848
1.01541
1.01108
1.01508
1.01013
1.01427
1.01045
1.01395
1.01107
1.01414
1.01177
1.01429
1.01221
1.01436
1.01218
1.01436
1.01204
1.01369
1.01157
1.01282
1.01043
1.01172
1.00986
1.01096
1.00916
1.01088
1.00922
1.01166
1.01024
1.01261
1.01081
1.01305
1.0109
1.01269
1.00974
1.01152
1.00832
1.01072
1.00757
1.01098
1.0086
1.01311
1.01082
1.01567
1.01274
1.0163
1.01222
1.01526
1.0103
1.01361
1.0085
1.01217
1.00679
1.01075
1.00597
1.01097
1.00659
1.01267
1.00829
1.01383
1.00854
1.0147
1.00931
1.01556
1.00842
1.01344
1.00809
1.01731
1.01502
1.02203
1.00653
1.01583
1.00738
1.01172
1.00842
1.01222
1.01059
1.01314
1.01086
1.0122
1.01081
1.0121
1.01099
1.01287
1.01166
1.01374
1.01229
1.01418
1.01294
1.01455
1.01324
1.01412
1.01289
1.01365
1.01186
1.01252
1.01096
1.01169
1.00968
1.01098
1.00917
1.01092
1.00935
1.0118
1.01003
1.01275
1.01101
1.01341
1.01079
1.01273
1.00985
1.01158
1.00845
1.01066
1.00784
1.01089
1.00835
1.01289
1.01084
1.01548
1.01254
1.01633
1.01228
1.01519
1.0106
1.01316
1.00827
1.0117
1.00676
1.01055
1.00556
1.01039
1.00627
1.01199
1.0079
1.01322
1.00852
1.01422
1.0093
1.01497
1.00826
1.0128
1.00771
1.01745
1.01393
1.02154
1.00534
1.01567
1.0127
1.00763
1.01293
1.00903
1.01549
1.01081
1.01443
1.00946
1.01353
1.00969
1.01327
1.01032
1.0135
1.01097
1.01339
1.012
1.01407
1.0125
1.01437
1.01234
1.01411
1.01212
1.01362
1.01165
1.01283
1.01055
1.01168
1.00988
1.01095
1.0092
1.01084
1.00923
1.01156
1.01024
1.01259
1.01081
1.01304
1.01095
1.0127
1.00979
1.0115
1.00836
1.01071
1.00761
1.01094
1.00858
1.01304
1.0108
1.0156
1.01274
1.0163
1.01224
1.01523
1.01033
1.01357
1.00853
1.01213
1.0068
1.01071
1.00597
1.01089
1.00662
1.01257
1.00829
1.01373
1.00853
1.01457
1.00932
1.0155
1.00846
1.0133
1.00804
1.01725
1.01516
1.02351
1.00541
1.01604
1.00772
1.01205
1.00879
1.01222
1.0106
1.01259
1.01031
1.01153
1.01014
1.01116
1.01027
1.01194
1.01099
1.01266
1.01183
1.01362
1.01244
1.01406
1.01276
1.01444
1.01336
1.01424
1.01294
1.01361
1.01198
1.01255
1.011
1.01172
1.00976
1.01098
1.00925
1.01088
1.00937
1.01177
1.01004
1.01269
1.01103
1.01338
1.01085
1.01271
1.0099
1.0116
1.00849
1.01066
1.00783
1.01087
1.00834
1.01282
1.01081
1.01542
1.01252
1.01628
1.01229
1.01518
1.01063
1.01315
1.00832
1.01168
1.0068
1.01052
1.00556
1.01031
1.00626
1.01191
1.00791
1.01314
1.00855
1.01412
1.00932
1.01492
1.00834
1.01286
1.00763
1.01726
1.01316
1.02245
1.00641
1.01598
1.0125
1.0081
1.01292
1.0092
1.01517
1.01026
1.01367
1.00877
1.01278
1.00893
1.01251
1.00952
1.01277
1.01017
1.01279
1.01131
1.0133
1.01197
1.0138
1.01271
1.01429
1.01247
1.01414
1.01225
1.01369
1.01174
1.0128
1.01064
1.01166
1.00988
1.01094
1.00925
1.01083
1.00928
1.01152
1.01022
1.01255
1.01082
1.01303
1.01098
1.01271
1.00985
1.01152
1.00839
1.01071
1.00765
1.0109
1.00856
1.01295
1.01077
1.01553
1.01273
1.01626
1.01225
1.0152
1.01038
1.01355
1.00855
1.0121
1.00684
1.01065
1.006
1.0108
1.0066
1.01245
1.00826
1.01365
1.00855
1.01447
1.00932
1.01542
1.00849
1.01329
1.00799
1.01717
1.01482
1.02254
1.00596
1.01631
1.0081
1.01203
1.00891
1.0121
1.01031
1.01199
1.00972
1.01089
1.00951
1.01048
1.00993
1.0112
1.01019
1.01176
1.01124
1.01272
1.01184
1.01358
1.01229
1.01404
1.01289
1.01437
1.0134
1.01413
1.013
1.01359
1.01201
1.01251
1.01112
1.01171
1.0099
1.01091
1.00926
1.01083
1.00938
1.01172
1.01008
1.01265
1.01103
1.01334
1.01089
1.0127
1.00993
1.0116
1.00853
1.01065
1.00783
1.01085
1.00835
1.01278
1.01078
1.01537
1.01251
1.01625
1.01231
1.01514
1.01064
1.01313
1.00835
1.01165
1.00683
1.01049
1.00559
1.01024
1.00625
1.01183
1.00791
1.01305
1.00856
1.01403
1.00932
1.01485
1.00836
1.01286
1.00755
1.0171
1.01364
1.02156
1.00689
1.01627
1.01241
1.00836
1.01257
1.00925
1.0146
1.00967
1.01292
1.00814
1.01207
1.00824
1.01187
1.00878
1.01197
1.00954
1.01198
1.01034
1.0126
1.01148
1.01328
1.01236
1.01388
1.01277
1.01422
1.01257
1.01414
1.01233
1.01364
1.0118
1.01283
1.01067
1.01168
1.0099
1.011
1.00928
1.01081
1.00925
1.0115
1.01019
1.01256
1.01083
1.01303
1.011
1.0127
1.00988
1.01152
1.00842
1.0107
1.00769
1.01087
1.00855
1.01289
1.01074
1.01545
1.01273
1.01625
1.01227
1.0152
1.01042
1.01352
1.00859
1.01205
1.00688
1.01061
1.00599
1.01072
1.00659
1.01233
1.00826
1.01354
1.00856
1.01437
1.00933
1.01536
1.00849
1.0132
1.0079
1.01701
1.01519
1.0217
1.00642
1.01659
1.0083
1.01191
1.00895
1.01173
1.00996
1.01138
1.00906
1.01029
1.00898
1.00996
1.00958
1.01062
1.0098
1.01119
1.01043
1.01189
1.01122
1.01263
1.01177
1.01332
1.01238
1.01395
1.01295
1.01429
1.01344
1.01414
1.01289
1.01354
1.01213
1.01251
1.01117
1.01169
1.00993
1.01091
1.00927
1.01082
1.0094
1.01166
1.0101
1.01257
1.01103
1.0133
1.01093
1.01269
1.00999
1.01159
1.00859
1.01066
1.00784
1.01082
1.00834
1.01271
1.01076
1.01532
1.01249
1.01621
1.01233
1.01512
1.01069
1.01311
1.00838
1.0116
1.00687
1.01046
1.00561
1.01015
1.00624
1.01174
1.00789
1.01297
1.00856
1.01393
1.00932
1.01478
1.0084
1.01288
1.00746
1.01697
1.01388
1.02078
1.00729
1.01646
1.01247
1.00862
1.01246
1.00916
1.01384
1.009
1.01223
1.00762
1.01158
1.008
1.01173
1.00859
1.01121
1.00886
1.01119
1.00974
1.01171
1.01054
1.01241
1.01161
1.01324
1.01241
1.01381
1.01285
1.01423
1.01266
1.01411
1.01254
1.01369
1.01183
1.01284
1.0107
1.01171
1.00991
1.01101
1.0093
1.01081
1.00928
1.01144
1.01019
1.01254
1.01085
1.01302
1.01104
1.0127
1.00993
1.01154
1.00846
1.01068
1.0077
1.01083
1.00852
1.01284
1.0107
1.0154
1.01272
1.01621
1.01228
1.01518
1.01046
1.0135
1.00865
1.01202
1.00691
1.01055
1.00601
1.01061
1.00658
1.0122
1.00827
1.01345
1.00857
1.01427
1.00932
1.01528
1.00853
1.01319
1.00782
1.0169
1.01533
1.021
1.00671
1.01649
1.00846
1.01182
1.00898
1.0113
1.00957
1.01072
1.0085
1.00987
1.00876
1.00987
1.00971
1.0104
1.00963
1.01073
1.00984
1.01121
1.01042
1.01186
1.01107
1.0126
1.01166
1.01324
1.01238
1.01385
1.013
1.01418
1.01333
1.01406
1.01297
1.01356
1.01218
1.01251
1.01122
1.01168
1.00997
1.01089
1.0093
1.01081
1.00941
1.01162
1.01011
1.01252
1.01105
1.01328
1.01098
1.01269
1.01003
1.01159
1.00864
1.01067
1.00785
1.01079
1.00834
1.01264
1.01074
1.01525
1.01248
1.01619
1.01235
1.01511
1.01072
1.0131
1.00841
1.01157
1.00691
1.01041
1.00561
1.01008
1.00623
1.01163
1.00787
1.01288
1.00856
1.01385
1.0093
1.01469
1.00848
1.01286
1.00737
1.01689
1.01389
1.02027
1.00797
1.01652
1.01233
1.00844
1.01199
1.00882
1.01299
1.0084
1.01166
1.00731
1.01143
1.00813
1.01184
1.00854
1.01132
1.00892
1.01075
1.00927
1.01085
1.00995
1.01166
1.01086
1.01231
1.01187
1.01306
1.01247
1.01375
1.01293
1.01423
1.01289
1.01416
1.01261
1.01367
1.01192
1.01285
1.01077
1.01172
1.00994
1.01103
1.0093
1.0108
1.00928
1.01142
1.01019
1.01252
1.01085
1.01301
1.01105
1.0127
1.00997
1.01156
1.00849
1.01066
1.00774
1.0108
1.00849
1.01279
1.01067
1.01534
1.01271
1.01617
1.0123
1.01515
1.0105
1.01345
1.00868
1.01199
1.00695
1.01049
1.00604
1.01054
1.0066
1.01211
1.00826
1.01334
1.00858
1.01417
1.00932
1.01518
1.00858
1.01315
1.00776
1.01679
1.01522
1.0209
1.00595
1.0168
1.00853
1.01158
1.00878
1.01085
1.00909
1.01006
1.00805
1.00965
1.0088
1.00999
1.00988
1.01039
1.00984
1.01058
1.00954
1.01083
1.00994
1.01134
1.01046
1.01164
1.01107
1.01254
1.01165
1.01327
1.0124
1.01381
1.01302
1.0141
1.01336
1.01406
1.01295
1.01356
1.01219
1.01255
1.01125
1.01169