/*--------------------------------*- C++ -*----------------------------------*\
| =========                 |                                                 |
| \\      /  F ield         | OpenFOAM: The Open Source CFD Toolbox           |
|  \\    /   O peration     | Version:  2206                                  |
|   \\  /    A nd           | Website:  www.openfoam.com                      |
|    \\/     M anipulation  |                                                 |
\*---------------------------------------------------------------------------*/
FoamFile
{
    version     2.0;
    format      ascii;
    arch        "LSB;label=32;scalar=64";
    class       volScalarField;
    location    "210";
    object      TPrime2Mean;
}
// * * * * * * * * * * * * * * * * * * * * * * * * * * * * * * * * * * * * * //

dimensions      [0 0 0 2 0 0 0];

internalField   nonuniform List<scalar> 
93840
(
0.0014114
0.000617663
0.00289958
0.000478439
0.00170696
0.00410053
0.000261253
0.000411092
0.00042124
0.00223301
0.000317369
0.00295681
0.00020015
0.000805202
0.00109258
0.000146351
0.000561741
0.00396997
0.000334904
0.000346324
0.00118022
3.69073e-05
0.000525681
0.000455818
0.000715959
0.00105735
8.42938e-05
0.00159632
1.89208e-05
0.000306072
0.000662187
0.00036353
0.00091247
0.000804137
0.00015249
0.00195226
2.27083e-05
0.00022368
0.000317339
0.000327087
6.92771e-05
0.00014561
0.000646999
0.00016206
0.00193544
4.89155e-05
0.00015985
0.000330043
0.000598711
0.000967726
0.000261041
0.00085986
0.00044906
0.000199955
0.00239907
1.86833e-05
0.000138421
0.000280326
0.000220119
0.000225634
0.000553775
0.000111157
0.000302544
0.000421819
0.0001956
0.00186091
3.79507e-05
5.77196e-05
0.000181209
0.000281175
0.000624985
0.000286749
0.000652389
0.000228601
0.000563961
0.000503753
0.000165591
0.00178204
1.77356e-05
0.000101724
0.00012512
0.000152112
0.00022302
0.000382178
0.000174584
0.000205479
0.000226149
0.00023428
0.000496853
0.000189927
0.00186802
3.13054e-05
5.50889e-05
0.000165103
0.000132071
0.000316144
0.000265878
0.000546212
0.000215218
0.000324974
0.000222278
0.000473537
0.000405825
0.000148184
0.00173545
1.13875e-05
9.67424e-05
0.000103542
0.000113612
0.000138005
0.000294897
7.28807e-05
0.000206332
0.000182123
0.000152144
0.000257322
0.00022885
0.000447953
0.000191333
0.00181757
2.34789e-05
4.96654e-05
0.000162007
8.26164e-05
0.000186055
0.000142385
0.000248579
0.000196257
0.000297758
0.000197949
0.000310979
0.000208696
0.00043477
0.000407951
0.000144587
0.00169145
1.12217e-05
8.15626e-05
0.000127421
0.000108131
7.64326e-05
0.000253288
7.71191e-05
0.000230062
8.70463e-05
0.000137134
0.000188029
0.000144315
0.000252063
0.00021321
0.000403558
0.000193121
0.00181673
2.49152e-05
4.31071e-05
0.000169986
8.4781e-05
0.000112167
0.000106591
0.000173872
0.000126048
0.000165192
0.000179314
0.000270428
0.000186245
0.000279107
0.000186776
0.00041265
0.000396261
0.000143913
0.0016756
1.13802e-05
6.92922e-05
0.00013765
0.000117733
6.95495e-05
0.000197665
5.83812e-05
0.00019319
7.11999e-05
0.000199529
9.56356e-05
0.000123074
0.000191993
0.000144776
0.000246436
0.000197905
0.000379857
0.000193684
0.00180699
2.68239e-05
3.67238e-05
0.000174076
0.000104922
9.32968e-05
8.00937e-05
0.000127421
7.49089e-05
0.000137199
0.000124193
0.000147306
0.000165512
0.00023347
0.00017618
0.000266777
0.000185423
0.000379008
0.000391493
0.000145289
0.00165142
1.40756e-05
6.38328e-05
0.000151369
0.0001181
6.17757e-05
0.000191367
4.30256e-05
0.000139327
6.17065e-05
0.000174436
6.97933e-05
0.00017717
0.000105577
0.00011678
0.000197478
0.000139018
0.000239466
0.000180935
0.000357556
0.00019438
0.00179909
3.14942e-05
3.19475e-05
0.000167725
0.000114888
8.50084e-05
8.85832e-05
8.60369e-05
5.47395e-05
9.92161e-05
7.49936e-05
0.000111202
0.000121233
0.000135532
0.000153972
0.00021532
0.000166675
0.000241573
0.000181809
0.000342577
0.000390438
0.000147012
0.00161433
1.77198e-05
7.49739e-05
0.000146085
0.000122707
6.44493e-05
0.000173529
4.66536e-05
0.000126821
5.22581e-05
0.000136579
6.05953e-05
0.000153012
7.38406e-05
0.000169669
0.00011171
0.00010643
0.000192974
0.000130401
0.000226475
0.00016221
0.00034329
0.000193531
0.00183042
3.60647e-05
3.27553e-05
0.000153037
0.00012465
7.96331e-05
8.57364e-05
8.08878e-05
4.82448e-05
7.8671e-05
5.66307e-05
8.34879e-05
6.97797e-05
9.45447e-05
0.000110907
0.000130778
0.000141339
0.00018858
0.000165579
0.000215668
0.000185758
0.000313299
0.000386881
0.000150376
0.00158112
2.1766e-05
7.42985e-05
0.000149874
0.000133083
7.83087e-05
0.000173092
5.30478e-05
0.000129467
5.53486e-05
0.000124283
5.49419e-05
0.000105004
6.13472e-05
0.00014165
7.68151e-05
0.000145641
0.000116019
0.000109308
0.000186106
0.000119352
0.000221927
0.000152239
0.000333649
0.000205593
0.00188586
4.083e-05
3.71707e-05
0.000169672
0.00013577
6.59068e-05
0.000101434
7.93105e-05
6.27285e-05
6.67235e-05
4.81587e-05
6.50221e-05
5.43603e-05
7.15126e-05
7.0979e-05
8.84892e-05
0.000100829
0.000121245
0.000135463
0.00016353
0.000166076
0.000193148
0.000190668
0.000294155
0.000385226
0.000184649
0.00198602
2.31938e-05
9.15728e-05
0.00013679
0.000126314
7.23803e-05
0.000168879
4.8226e-05
0.000112807
5.10488e-05
0.000125143
6.24279e-05
9.26432e-05
5.98805e-05
0.000102019
6.49195e-05
0.000122821
8.16742e-05
0.000142135
0.00010952
0.000112911
0.000180023
0.000108914
0.000217305
0.000143207
0.000336833
0.000158515
0.00177229
4.55713e-05
4.70229e-05
0.000178841
0.000126797
6.97546e-05
7.94721e-05
8.12112e-05
6.07595e-05
6.95432e-05
5.90412e-05
6.55565e-05
4.95552e-05
6.35332e-05
5.62759e-05
6.6893e-05
7.16899e-05
8.30157e-05
9.51872e-05
0.000118193
0.000129832
0.000140741
0.000162984
0.000179872
0.000194797
0.000269116
0.000421896
0.000122598
0.00176628
2.5779e-05
9.65577e-05
0.00013348
0.000124066
6.20108e-05
0.000174601
4.12779e-05
0.000105822
4.40368e-05
0.000103577
5.2086e-05
9.75598e-05
6.53301e-05
8.89273e-05
6.46996e-05
8.71286e-05
6.41431e-05
0.000111579
8.31435e-05
0.000137284
0.000108572
0.000111999
0.00017949
0.000105926
0.000217202
0.000138856
0.000357007
0.00017589
0.00166133
5.04696e-05
5.36584e-05
0.000186428
0.000119335
6.98548e-05
6.75258e-05
5.53698e-05
5.09255e-05
6.66834e-05
5.69743e-05
5.9678e-05
6.14381e-05
5.65484e-05
5.17382e-05
6.19831e-05
5.79534e-05
6.37153e-05
7.28255e-05
8.20169e-05
9.41384e-05
0.000114537
0.000122936
0.000131161
0.000161523
0.000171128
0.000198164
0.00024401
0.000387643
0.000147591
0.00170622
3.13164e-05
9.37946e-05
0.000129367
0.000130134
5.43008e-05
0.000162819
3.28226e-05
9.2052e-05
3.46587e-05
9.28695e-05
4.27686e-05
8.18364e-05
5.6521e-05
8.87322e-05
6.71511e-05
8.25612e-05
6.39458e-05
8.30635e-05
6.36132e-05
9.1887e-05
8.16063e-05
0.000133793
0.000108186
0.000113528
0.000178092
0.000106959
0.000217183
0.000138353
0.00033927
0.000192113
0.00162689
5.61866e-05
7.12384e-05
0.000194301
0.000115219
7.77109e-05
6.74813e-05
5.08773e-05
4.53093e-05
5.84209e-05
4.74805e-05
6.4063e-05
5.83897e-05
5.58642e-05
6.11843e-05
5.57946e-05
5.23302e-05
6.03548e-05
5.99649e-05
6.06024e-05
7.18138e-05
8.44478e-05
8.97649e-05
0.000112473
0.000118061
0.000127884
0.00015791
0.000160533
0.000204126
0.000224577
0.000382129
0.000160115
0.00167542
3.83526e-05
9.8472e-05
0.000119827
0.000138005
4.9153e-05
0.000165742
2.76052e-05
8.13369e-05
2.66231e-05
7.17232e-05
3.46756e-05
7.48189e-05
4.57862e-05
7.51701e-05
5.80015e-05
8.324e-05
6.60807e-05
7.57457e-05
6.12324e-05
7.92803e-05
6.47529e-05
9.58995e-05
8.19272e-05
0.000127998
0.000106283
0.00010739
0.000176977
0.00010321
0.000217981
0.00013532
0.000341057
0.000199179
0.00161848
5.31568e-05
0.000100207
0.000155915
0.000131366
7.63761e-05
7.15865e-05
4.95527e-05
4.42171e-05
4.50887e-05
4.21611e-05
5.6801e-05
4.62328e-05
5.8514e-05
5.75087e-05
5.23579e-05
5.88112e-05
5.20604e-05
5.27344e-05
5.73328e-05
5.96402e-05
5.83232e-05
7.28423e-05
8.22789e-05
8.47525e-05
0.000107778
0.000114037
0.000120574
0.000157043
0.000149952
0.000210854
0.000210362
0.000369589
0.000171336
0.001662
3.49838e-05
9.76228e-05
0.000128572
0.000132258
4.98405e-05
0.000150765
3.12592e-05
6.34003e-05
2.58588e-05
6.4481e-05
2.53145e-05
6.31163e-05
3.47715e-05
6.85539e-05
4.74595e-05
7.00597e-05
5.79879e-05
7.49311e-05
6.82569e-05
6.93027e-05
6.01293e-05
7.56104e-05
6.28471e-05
9.31997e-05
8.15095e-05
0.000126522
0.00010552
0.00010664
0.000175802
9.85287e-05
0.000219234
0.000112774
0.000349184
0.000155257
0.0016114
5.29174e-05
0.000107161
0.000128104
0.00013599
7.25552e-05
7.71214e-05
4.82583e-05
4.32415e-05
4.18844e-05
3.65475e-05
4.3584e-05
3.97863e-05
5.12403e-05
4.51078e-05
5.21111e-05
5.54184e-05
4.87817e-05
5.83932e-05
5.07345e-05
5.27811e-05
5.39136e-05
6.04901e-05
5.68849e-05
7.2318e-05
7.98618e-05
7.97145e-05
0.000103368
0.000111633
0.000114213
0.000158432
0.000141757
0.000215492
0.000188293
0.000442585
0.000134474
0.00165282
3.50789e-05
9.83013e-05
0.000143625
0.000123817
4.62375e-05
0.000144319
3.11568e-05
6.15525e-05
2.80595e-05
5.2998e-05
2.38642e-05
5.63098e-05
2.50694e-05
5.53848e-05
3.28828e-05
5.96711e-05
4.65601e-05
6.23711e-05
5.82339e-05
6.54876e-05
6.77995e-05
6.0948e-05
6.06107e-05
6.61266e-05
5.96322e-05
9.10063e-05
7.84574e-05
0.000125703
0.000105213
0.000103582
0.000175564
9.42088e-05
0.000221109
9.67212e-05
0.000411065
0.00016586
0.00160407
5.07811e-05
0.000126909
0.000106318
0.000120431
7.51146e-05
7.136e-05
4.9699e-05
4.01143e-05
4.70912e-05
3.868e-05
3.89048e-05
3.54962e-05
3.70824e-05
3.61212e-05
4.56267e-05
4.15099e-05
4.72174e-05
5.04884e-05
4.80184e-05
5.67684e-05
5.16763e-05
5.16708e-05
5.46837e-05
5.54624e-05
6.05227e-05
6.81852e-05
7.84854e-05
7.84238e-05
0.00010391
0.000108158
0.000108714
0.000157609
0.000136246
0.000218944
0.000164984
0.000412936
0.000142349
0.00164542
3.72258e-05
9.11492e-05
0.000160422
0.000115205
3.43731e-05
0.00013311
3.1898e-05
4.63357e-05
4.10204e-05
4.67744e-05
2.94433e-05
4.63696e-05
2.1864e-05
5.25874e-05
2.39129e-05
4.80215e-05
3.14342e-05
5.49611e-05
4.69049e-05
5.38093e-05
5.80667e-05
6.23123e-05
6.66932e-05
6.01596e-05
5.88712e-05
6.52652e-05
5.89709e-05
9.02296e-05
7.80011e-05
0.000122488
0.000101943
0.000103427
0.000175176
9.37225e-05
0.000222485
0.00010467
0.000387692
0.000175338
0.00159841
4.74772e-05
0.000145021
8.03234e-05
0.000122962
5.8498e-05
7.4374e-05
4.86602e-05
4.97714e-05
4.83301e-05
3.99984e-05
4.36544e-05
3.48444e-05
3.50682e-05
3.33905e-05
3.41283e-05
3.44618e-05
4.22529e-05
4.06171e-05
4.4444e-05
4.94493e-05
4.68288e-05
5.1737e-05
5.18612e-05
4.96612e-05
5.33751e-05
5.3946e-05
6.02571e-05
6.70078e-05
7.74236e-05
7.60691e-05
0.000102867
0.000108747
0.000106873
0.000155552
0.000129274
0.000222122
0.000162185
0.000406528
0.000116412
0.00163886
3.3913e-05
8.41781e-05
0.000171429
0.000105956
3.98808e-05
0.000112177
4.34069e-05
3.81663e-05
4.65982e-05
3.77515e-05
4.36385e-05
4.26449e-05
2.81891e-05
4.4704e-05
2.16489e-05
4.63786e-05
2.27705e-05
4.2905e-05
3.12177e-05
5.00818e-05
4.78548e-05
5.17113e-05
5.77273e-05
6.01799e-05
6.59405e-05
5.86914e-05
5.63094e-05
6.48076e-05
5.78624e-05
8.81426e-05
7.37886e-05
0.000122946
9.87836e-05
0.000103088
0.000172216
9.29425e-05
0.000223536
0.000110409
0.000458733
0.000133727
0.00159546
4.63189e-05
0.000144332
6.45289e-05
0.000125282
4.53611e-05
8.73005e-05
4.90806e-05
5.74475e-05
4.74215e-05
4.73956e-05
4.40373e-05
3.56385e-05
3.94179e-05
3.39612e-05
3.44526e-05
2.90508e-05
3.25137e-05
3.27288e-05
3.95813e-05
3.85213e-05
4.37406e-05
4.78011e-05
4.71675e-05
4.98584e-05
5.19321e-05
4.96967e-05
5.23024e-05
5.11875e-05
5.80467e-05
6.61161e-05
7.7257e-05
7.55067e-05
0.000102541
0.000107043
0.000107086
0.000153621
0.00012534
0.00022355
0.000135017
0.000454696
0.000126544
0.00163187
3.18773e-05
7.77325e-05
0.000174703
9.12829e-05
5.57858e-05
0.00010202
4.50694e-05
3.52617e-05
4.89405e-05
3.26909e-05
4.7454e-05
3.34433e-05
4.21664e-05
3.91232e-05
2.65109e-05
4.2191e-05
1.83882e-05
4.41526e-05
1.72552e-05
3.88411e-05
3.00687e-05
4.77916e-05
3.85714e-05
5.10915e-05
5.75066e-05
5.61897e-05
5.58614e-05
5.91726e-05
5.64292e-05
6.37645e-05
5.75741e-05
8.65972e-05
7.16891e-05
0.000122058
9.72226e-05
0.000104463
0.000169082
9.17673e-05
0.000220778
0.000110645
0.000424893
0.000141056
0.0015774
4.70472e-05
0.000132228
6.18838e-05
0.000135036
3.89321e-05
9.61466e-05
4.76006e-05
5.34109e-05
4.66652e-05
5.30523e-05
4.14219e-05
4.36146e-05
3.88206e-05
3.32568e-05
3.7747e-05
3.06296e-05
3.14329e-05
2.82848e-05
3.09905e-05
3.12729e-05
3.82277e-05
3.74292e-05
4.3774e-05
4.61351e-05
4.82593e-05
4.78228e-05
5.29074e-05
5.21755e-05
5.16645e-05
5.09524e-05
5.66947e-05
6.59869e-05
7.62095e-05
7.38875e-05
0.000101847
0.000104369
0.000106714
0.000150786
0.000123055
0.000224653
0.000144045
0.000420777
0.000133118
0.00160415
2.86521e-05
5.91491e-05
0.000174285
7.2785e-05
7.00974e-05
0.000101543
3.84534e-05
3.537e-05
4.72409e-05
3.43203e-05
4.41075e-05
3.13013e-05
4.68395e-05
2.86605e-05
4.05254e-05
3.81917e-05
2.38117e-05
3.68607e-05
1.53066e-05
3.43438e-05
1.78831e-05
3.42753e-05
2.98156e-05
4.61998e-05
3.94945e-05
4.88829e-05
5.44027e-05
5.33468e-05
5.42868e-05
5.61586e-05
5.36096e-05
6.24496e-05
5.65624e-05
8.48707e-05
7.08072e-05
0.000121223
9.54249e-05
0.000106067
0.000166172
9.13976e-05
0.000219235
0.000121252
0.000399721
0.000153025
0.0015543
4.60746e-05
0.00011589
6.09721e-05
0.000136839
3.8809e-05
9.44755e-05
4.55162e-05
4.6006e-05
4.29802e-05
4.59564e-05
4.0788e-05
5.02107e-05
3.56177e-05
4.19088e-05
3.66192e-05
3.18206e-05
3.57524e-05
2.74497e-05
3.01589e-05
2.62153e-05
2.97515e-05
3.02974e-05
3.6941e-05
3.5543e-05
4.21297e-05
4.52429e-05
4.78548e-05
4.78293e-05
5.34427e-05
5.28206e-05
5.27498e-05
5.06335e-05
5.60133e-05
6.61586e-05
7.54399e-05
7.32243e-05
0.000100611
0.000101339
0.000106242
0.000148786
0.000121122
0.000226383
0.000145861
0.000412154
0.000117214
0.0015852
3.03014e-05
5.06317e-05
0.000177351
7.48103e-05
6.87967e-05
9.69132e-05
2.95301e-05
3.49106e-05
3.81104e-05
3.01948e-05
3.95746e-05
3.05633e-05
4.13769e-05
3.05352e-05
4.26688e-05
2.44382e-05
4.38514e-05
2.94609e-05
2.43146e-05
2.9915e-05
1.60838e-05
3.23961e-05
1.71557e-05
3.33189e-05
2.89374e-05
4.42103e-05
4.02467e-05
4.73121e-05
5.35909e-05
5.00579e-05
5.30233e-05
5.49406e-05
5.20355e-05
6.22138e-05
5.69944e-05
8.26831e-05
7.05972e-05
0.000119604
9.34326e-05
0.000104707
0.000162843
9.16346e-05
0.000218709
0.00012849
0.000461228
0.000124273
0.00154015
4.80092e-05
0.00011463
6.47441e-05
0.000130689
4.51352e-05
8.41962e-05
4.11936e-05
4.59672e-05
4.09326e-05
3.96496e-05
3.4048e-05
4.13092e-05
3.34453e-05
4.68473e-05
3.08546e-05
3.91804e-05
3.41905e-05
2.74001e-05
3.56764e-05
2.43664e-05
2.90497e-05
2.60741e-05
2.85643e-05
2.98139e-05
3.55258e-05
3.51197e-05
4.17454e-05
4.36469e-05
4.71963e-05
4.6795e-05
5.30428e-05
5.27486e-05
5.21013e-05
5.24672e-05
5.55839e-05
6.57869e-05
7.38651e-05
7.26321e-05
0.000101947
9.93487e-05
0.000106738
0.000146991
0.000119783
0.000227505
0.000124033
0.000452307
0.000128013
0.00157373
3.55492e-05
4.67955e-05
0.000182959
6.45356e-05
6.62129e-05
9.82068e-05
2.76956e-05
3.88492e-05
3.29725e-05
2.69787e-05
3.23304e-05
2.53623e-05
3.46812e-05
2.69296e-05
4.19653e-05
2.64526e-05
3.98961e-05
2.35565e-05
3.83916e-05
2.69384e-05
2.38371e-05
2.8718e-05
1.67764e-05
3.17965e-05
1.79815e-05
3.30942e-05
2.91791e-05
4.14584e-05
3.94279e-05
4.58177e-05
5.31495e-05
5.07859e-05
5.24499e-05
5.42545e-05
5.06006e-05
6.20671e-05
5.65995e-05
8.15802e-05
6.8992e-05
0.000118898
9.12782e-05
0.00010367
0.000159795
8.82191e-05
0.000219331
0.00012959
0.000432353
0.000133364
0.00152995
4.65212e-05
0.000128468
7.27427e-05
0.000118167
5.1093e-05
7.20968e-05
4.21719e-05
4.70406e-05
4.1998e-05
3.89883e-05
3.19185e-05
3.61016e-05
2.8494e-05
3.6878e-05
3.0122e-05
4.28503e-05
2.9717e-05
3.81407e-05
3.17369e-05
2.6943e-05
3.49225e-05
2.29774e-05
2.85745e-05
2.59165e-05
2.68497e-05
2.85456e-05
3.46553e-05
3.42604e-05
4.15705e-05
4.25878e-05
4.62673e-05
4.65853e-05
5.2217e-05
5.1184e-05
5.16143e-05
5.30529e-05
5.45561e-05
6.59101e-05
7.40275e-05
7.19104e-05
0.00010225
9.79807e-05
0.000105714
0.000143233
0.000116349
0.000227465
0.000133975
0.000422214
0.000138582
0.00156161
3.67683e-05
4.85968e-05
0.000186789
6.82503e-05
6.24396e-05
9.67803e-05
2.82272e-05
4.1964e-05
3.51556e-05
2.80841e-05
3.11906e-05
2.48148e-05
2.64171e-05
2.35909e-05
3.21502e-05
2.30416e-05
3.91845e-05
2.48397e-05
3.84627e-05
2.31198e-05
3.6427e-05
2.50514e-05
2.28311e-05
2.78728e-05
1.65869e-05
3.14134e-05
1.74067e-05
3.16187e-05
2.88743e-05
4.02682e-05
3.95714e-05
4.54928e-05
5.08511e-05
4.98064e-05
5.27207e-05
5.30795e-05
5.07721e-05
6.19676e-05
5.66846e-05
8.01419e-05
6.77766e-05
0.000118011
9.0202e-05
0.000102729
0.00015767
8.70387e-05
0.000219818
0.000141153
0.00042535
0.000113144
0.00151374
4.60136e-05
0.000135087
7.9297e-05
0.0001028
5.34319e-05
5.93622e-05
4.6868e-05
4.92895e-05
4.16959e-05
4.54313e-05
3.3509e-05
3.50196e-05
2.87525e-05
3.34512e-05
2.65519e-05
3.32739e-05
2.74583e-05
3.9841e-05
2.8123e-05
3.68927e-05
3.12788e-05
2.69354e-05
3.30056e-05
2.19567e-05
2.73401e-05
2.51104e-05
2.71274e-05
2.77413e-05
3.44578e-05
3.3047e-05
4.11501e-05
4.16906e-05
4.55077e-05
4.68829e-05
5.18746e-05
5.1505e-05
5.03716e-05
5.2883e-05
5.37158e-05
6.64201e-05
7.33385e-05
7.04937e-05
0.000101679
9.74864e-05
0.000103142
0.000141086
0.000113012
0.000229187
0.000137237
0.000466678
0.00012338
0.00154514
4.48974e-05
5.93451e-05
0.000190107
6.47559e-05
5.41476e-05
9.1696e-05
3.25633e-05
4.13756e-05
4.06794e-05
3.06479e-05
3.38532e-05
2.8141e-05
2.81511e-05
2.33695e-05
2.45898e-05
2.09801e-05
3.07799e-05
2.18685e-05
3.71425e-05
2.3537e-05
3.58336e-05
2.23099e-05
3.54288e-05
2.40487e-05
2.27921e-05
2.74855e-05
1.61452e-05
3.05792e-05
1.78094e-05
3.02687e-05
2.63196e-05
3.96779e-05
3.93979e-05
4.49214e-05
5.05451e-05
4.91514e-05
5.27138e-05
5.18078e-05
5.09996e-05
6.11253e-05
5.70572e-05
7.94431e-05
6.48365e-05
0.000116273
8.84386e-05
9.91233e-05
0.000154947
8.76215e-05
0.000219538
0.000138719
0.00045644
0.000122129
0.00149823
4.4842e-05
0.000151016
8.80271e-05
9.34474e-05
6.29048e-05
5.42041e-05
4.80691e-05
5.21544e-05
3.44814e-05
5.25845e-05
3.06333e-05
4.30145e-05
3.04785e-05
3.30818e-05
2.70587e-05
2.94952e-05
2.48994e-05
2.89476e-05
2.66801e-05
3.71832e-05
2.70067e-05
3.56908e-05
3.05324e-05
2.76558e-05
3.17172e-05
2.20821e-05
2.76741e-05
2.48493e-05
2.66872e-05
2.59094e-05
3.45643e-05
3.34606e-05
4.07387e-05
4.15489e-05
4.54959e-05
4.72475e-05
5.09655e-05
5.22613e-05
4.99153e-05
5.37788e-05
5.35244e-05
6.67424e-05
7.30361e-05
7.05963e-05
0.000100775
9.43444e-05
0.000102114
0.000141752
0.000111936
0.00022965
0.000127823
0.000437546
0.000131642
0.00153351
5.0418e-05
6.29851e-05
0.00018861
5.89045e-05
5.02981e-05
9.84833e-05
3.74982e-05
4.17239e-05
4.67791e-05
3.5801e-05
4.05776e-05
3.04207e-05
3.18045e-05
2.54135e-05
2.57747e-05
2.16787e-05
2.37152e-05
2.02509e-05
3.10543e-05
2.04697e-05
3.67969e-05
2.27778e-05
3.72528e-05
2.18474e-05
2.99327e-05
2.32377e-05
2.13312e-05
2.69331e-05
1.51639e-05
2.8766e-05
1.80288e-05
2.90989e-05
2.62379e-05
3.94084e-05
3.93143e-05
4.43745e-05
5.04016e-05
4.8383e-05
5.22071e-05
5.16871e-05
5.08263e-05
5.98314e-05
5.68197e-05
7.85562e-05
6.4493e-05
0.000115807
8.5671e-05
9.86696e-05
0.000153005
8.85038e-05
0.000219246
0.000148663
0.000431947
0.000127646
0.00148584
4.53201e-05
0.000158031
9.21221e-05
7.99937e-05
5.82076e-05
5.06439e-05
4.80054e-05
5.26831e-05
3.18951e-05
5.85168e-05
2.54317e-05
5.12017e-05
2.83443e-05
4.08688e-05
2.65214e-05
3.23042e-05
2.59891e-05
2.84158e-05
2.43065e-05
2.67039e-05
2.49175e-05
3.5267e-05
2.66296e-05
3.27818e-05
2.9355e-05
2.85552e-05
2.9856e-05
2.14324e-05
2.71389e-05
2.41505e-05
2.68273e-05
2.54459e-05
3.38645e-05
3.31542e-05
4.05783e-05
4.18891e-05
4.55873e-05
4.70365e-05
5.04453e-05
5.16608e-05
4.96005e-05
5.44375e-05
5.32891e-05
6.64977e-05
7.263e-05
6.97321e-05
0.000100769
9.45583e-05
0.000101572
0.000141712
0.000111929
0.000231345
0.000133705
0.000417726
0.000137302
0.00151914
5.56413e-05
7.40961e-05
0.000193494
6.19745e-05
3.69148e-05
9.00271e-05
4.45361e-05
3.8939e-05
4.51941e-05
4.02087e-05
4.6013e-05
3.12212e-05
3.76724e-05
2.81731e-05
2.91575e-05
2.46676e-05
2.4933e-05
2.05836e-05
2.27426e-05
1.8903e-05
2.68866e-05
1.96811e-05
3.64344e-05
2.24064e-05
3.62446e-05
2.186e-05
2.97238e-05
2.26217e-05
2.09677e-05
2.64351e-05
1.55274e-05
2.77431e-05
1.82248e-05
2.86978e-05
2.67292e-05
3.93521e-05
3.94731e-05
4.36111e-05
5.09113e-05
4.80744e-05
5.26087e-05
5.12728e-05
5.0865e-05
5.95749e-05
5.71025e-05
7.76555e-05
6.36318e-05
0.00011422
8.5456e-05
9.81163e-05
0.000151804
8.88752e-05
0.000218413
0.000141812
0.000417941
0.000135261
0.00147066
4.3755e-05
0.000166749
9.56368e-05
7.79513e-05
6.56817e-05
5.13616e-05
4.27625e-05
5.38027e-05
3.37982e-05
5.64758e-05
2.53069e-05
5.76902e-05
2.4876e-05
4.66263e-05
2.59176e-05
3.97118e-05
2.45545e-05
3.16397e-05
2.40049e-05
2.78623e-05
2.33246e-05
2.56972e-05
2.40437e-05
3.36729e-05
2.5698e-05
3.064e-05
2.82166e-05
2.77494e-05
2.86595e-05
2.16936e-05
2.68643e-05
2.32049e-05
2.58817e-05
2.44967e-05
3.30578e-05
3.28337e-05
4.05011e-05
4.20068e-05
4.56658e-05
4.637e-05
5.04651e-05
5.15857e-05
4.97924e-05
5.48315e-05
5.32146e-05
6.66347e-05
7.22688e-05
6.91318e-05
0.000101088
9.41186e-05
0.000101049
0.000142838
0.00011071
0.000232216
0.000140918
0.00040328
0.000144678
0.00150261
6.26594e-05
8.90736e-05
0.000202202
6.45237e-05
4.08087e-05
8.4965e-05
4.83447e-05
3.87203e-05
4.25634e-05
4.27249e-05
4.31402e-05
3.58419e-05
4.16127e-05
3.11531e-05
3.63161e-05
2.7857e-05
2.83575e-05
2.4272e-05
2.39801e-05
2.00227e-05
2.15727e-05
1.82494e-05
2.65673e-05
1.97675e-05
3.61191e-05
2.22247e-05
3.49357e-05
2.19529e-05
2.95609e-05
2.22745e-05
2.06956e-05
2.58884e-05
1.56908e-05
2.74582e-05
1.80533e-05
2.87768e-05
2.73125e-05
3.88657e-05
3.97077e-05
4.31378e-05
5.09129e-05
4.78209e-05
5.24051e-05
5.13702e-05
5.08456e-05
5.92838e-05
5.70869e-05
7.70169e-05
6.30416e-05
0.000108045
8.46049e-05
9.72791e-05
0.000149369
8.88992e-05
0.000218182
0.000146352
0.000418766
0.000122131
0.00145087
4.48852e-05
0.000171142
0.000108875
7.58707e-05
6.99375e-05
6.15523e-05
3.85533e-05
5.37615e-05
3.61685e-05
5.67763e-05
2.59358e-05
5.56199e-05
2.65963e-05
5.27174e-05
2.3474e-05
4.48069e-05
2.42819e-05
3.81069e-05
2.38071e-05
3.02733e-05
2.28823e-05
2.67313e-05
2.19105e-05
2.51336e-05
2.32771e-05
3.11453e-05
2.51072e-05
3.08293e-05
2.75354e-05
2.75978e-05
2.74435e-05
2.17201e-05
2.66212e-05
2.28561e-05
2.52065e-05
2.42398e-05
3.31226e-05
3.25283e-05
4.06368e-05
4.18231e-05
4.59712e-05
4.66738e-05
5.0532e-05
5.17962e-05
5.03663e-05
5.55382e-05
5.34072e-05
6.67067e-05
7.16084e-05
6.85596e-05
0.000104121
9.45184e-05
9.9539e-05
0.000142728
0.000107857
0.000235958
0.000139674
0.000447302
0.000134353
0.00148391
5.92813e-05
9.70957e-05
0.000212041
6.65299e-05
4.62474e-05
7.06979e-05
5.25684e-05
3.72942e-05
4.30763e-05
4.42651e-05
3.88731e-05
3.64148e-05
4.1652e-05
3.30246e-05
3.88584e-05
3.08049e-05
3.59717e-05
2.6176e-05
2.80469e-05
2.31959e-05
2.3548e-05
1.9641e-05
2.08413e-05
1.79255e-05
2.56044e-05
1.99177e-05
3.53976e-05
2.21624e-05
3.4373e-05
2.1808e-05
2.72704e-05
2.15069e-05
1.99026e-05
2.52615e-05
1.56764e-05
2.71255e-05
1.80246e-05
2.8571e-05
2.75771e-05
3.8686e-05
3.97806e-05
4.31349e-05
5.11219e-05
4.73804e-05
5.19885e-05
5.18845e-05
5.04069e-05
5.93008e-05
5.69714e-05
7.63754e-05
6.31046e-05
0.00010802
8.42622e-05
9.64953e-05
0.00014683
8.97128e-05
0.00021699
0.000137484
0.000453929
0.000126376
0.00143376
4.34957e-05
0.000158906
0.000106058
7.44617e-05
6.15739e-05
6.95358e-05
3.74404e-05
5.20235e-05
3.99428e-05
5.26129e-05
2.59722e-05
5.46667e-05
2.59358e-05
5.1721e-05
2.40272e-05
4.95721e-05
2.29511e-05
4.31445e-05
2.28408e-05
3.6101e-05
2.37492e-05
2.99287e-05
2.16559e-05
2.57755e-05
2.06174e-05
2.48939e-05
2.30057e-05
3.03223e-05
2.46632e-05
3.09254e-05
2.71206e-05
2.78969e-05
2.6742e-05
2.18494e-05
2.6202e-05
2.23454e-05
2.49427e-05
2.37286e-05
3.30543e-05
3.2432e-05
3.94152e-05
4.1896e-05
4.61734e-05
4.6744e-05
5.10741e-05
5.15427e-05
5.06932e-05
5.52779e-05
5.36732e-05
6.67705e-05
7.09505e-05
6.82655e-05
0.00010284
9.41987e-05
9.82905e-05
0.000142982
0.000106857
0.000237686
0.000131884
0.000431091
0.000139372
0.00146461
5.83179e-05
9.39352e-05
0.000213143
7.17853e-05
4.66742e-05
6.36199e-05
5.31606e-05
3.53755e-05
4.69082e-05
4.55897e-05
3.56679e-05
3.86336e-05
3.85678e-05
3.3247e-05
3.87513e-05
3.17783e-05
3.80433e-05
2.98967e-05
3.53347e-05
2.38911e-05
2.8448e-05
2.3118e-05
2.33749e-05
1.92086e-05
1.9954e-05
1.73598e-05
2.47513e-05
1.95865e-05
3.45698e-05
2.16894e-05
3.39929e-05
2.18951e-05
2.70476e-05
2.08436e-05
1.95447e-05
2.483e-05
1.55297e-05
2.69165e-05
1.78623e-05
2.80554e-05
2.77308e-05
3.88676e-05
3.97019e-05
4.31241e-05
4.97543e-05
4.78339e-05
5.21176e-05
5.19732e-05
5.04282e-05
5.901e-05
5.6885e-05
7.51341e-05
6.32694e-05
0.000107131
8.37733e-05
9.52181e-05
0.000144978
8.91578e-05
0.000218249
0.0001471
0.000440673
0.000133961
0.00141741
4.37041e-05
0.000157498
0.000108039
8.69148e-05
6.35735e-05
8.16222e-05
3.77573e-05
5.28612e-05
4.56231e-05
4.63729e-05
2.70693e-05
5.07393e-05
2.58583e-05
5.08219e-05
2.51148e-05
4.7854e-05
2.37618e-05
4.54297e-05
2.23552e-05
4.14472e-05
2.33747e-05
3.46324e-05
2.30219e-05
2.88382e-05
2.07616e-05
2.5659e-05
1.95441e-05
2.46795e-05
2.25348e-05
3.0183e-05
2.46338e-05
3.08068e-05
2.66241e-05
2.76817e-05
2.5879e-05
2.18848e-05
2.57178e-05
2.19853e-05
2.47957e-05
2.24879e-05
3.28591e-05
3.23859e-05
3.95825e-05
4.17522e-05
4.6522e-05
4.76172e-05
5.12681e-05
5.16258e-05
5.16215e-05
5.49572e-05
5.29302e-05
6.68475e-05
7.04454e-05
6.80096e-05
0.000101087
9.3988e-05
9.64967e-05
0.000144519
0.000102572
0.00023986
0.000136899
0.000425497
0.000132587
0.00144629
5.65242e-05
9.08511e-05
0.000211887
7.48366e-05
5.23574e-05
6.19041e-05
5.11761e-05
4.00585e-05
5.51955e-05
4.65144e-05
3.73527e-05
4.00375e-05
3.35209e-05
3.36872e-05
3.68543e-05
3.13028e-05
3.71176e-05
3.16128e-05
3.68827e-05
3.00767e-05
3.55719e-05
2.31256e-05
2.86093e-05
2.30383e-05
2.38777e-05
1.84304e-05
1.9282e-05
1.69269e-05
2.43886e-05
1.96116e-05
3.43425e-05
2.14594e-05
3.26481e-05
2.15755e-05
2.68891e-05
2.03537e-05
1.93473e-05
2.46864e-05
1.52849e-05
2.71237e-05
1.81121e-05
2.81554e-05
2.77753e-05
3.8849e-05
3.95926e-05
4.34139e-05
4.97243e-05
4.78069e-05
5.11801e-05
5.21846e-05
5.02913e-05
5.99054e-05
5.70762e-05
7.4603e-05
6.37239e-05
0.000105719
8.34528e-05
9.38264e-05
0.000141342
8.43166e-05
0.000220843
0.000151842
0.000484584
0.000119343
0.00140114
4.31055e-05
0.000144663
0.00010456
0.000101244
6.59125e-05
8.71804e-05
4.13033e-05
5.53616e-05
5.20581e-05
4.21422e-05
2.77664e-05
4.55529e-05
2.3647e-05
4.83506e-05
2.402e-05
4.70509e-05
2.43941e-05
4.45961e-05
2.34261e-05
4.40189e-05
2.12798e-05
4.04216e-05
2.28527e-05
3.37721e-05
2.24858e-05
2.83135e-05
2.04729e-05
2.50665e-05
1.8856e-05
2.45425e-05
2.17636e-05
2.99738e-05
2.41818e-05
3.0965e-05
2.60713e-05
2.77518e-05
2.51961e-05
2.17268e-05
2.48564e-05
2.15571e-05
2.46048e-05
2.20798e-05
3.26988e-05
3.22621e-05
3.92936e-05
4.13531e-05
4.69506e-05
4.76112e-05
5.12826e-05
5.15e-05
5.26216e-05
5.4415e-05
5.26422e-05
6.68761e-05
6.97216e-05
6.84849e-05
9.94756e-05
9.41027e-05
9.48458e-05
0.000144047
0.000101802
0.000241851
0.000121298
0.000458594
0.000138646
0.0014274
5.61707e-05
8.20888e-05
0.000215248
7.73898e-05
6.10388e-05
5.96243e-05
5.17689e-05
4.52812e-05
5.88776e-05
4.75044e-05
3.92707e-05
3.97577e-05
3.45214e-05
3.63283e-05
3.19287e-05
3.1887e-05
3.57242e-05
3.13956e-05
3.60246e-05
3.04673e-05
3.57559e-05
2.87163e-05
3.3872e-05
2.30163e-05
2.8426e-05
2.26338e-05
2.37313e-05
1.85138e-05
1.9936e-05
1.65425e-05
2.38252e-05
1.93692e-05
3.29178e-05
2.1373e-05
3.26095e-05
2.12266e-05
2.66177e-05
2.02657e-05
1.96e-05
2.44988e-05
1.52057e-05
2.70562e-05
1.80109e-05
2.80788e-05
2.78793e-05
3.88614e-05
3.98546e-05
4.3509e-05
4.98337e-05
4.87214e-05
5.07053e-05
5.24325e-05
4.97956e-05
6.00613e-05
5.74747e-05
7.36919e-05
6.41907e-05
0.000104609
8.32221e-05
9.25338e-05
0.000139858
8.30541e-05
0.000222516
0.000151278
0.000471308
0.000126561
0.00138401
4.04531e-05
0.000129406
0.000101989
0.000110297
6.82711e-05
8.74535e-05
4.48298e-05
6.07657e-05
5.59391e-05
4.58627e-05
3.00607e-05
4.28212e-05
2.42553e-05
4.43208e-05
2.1314e-05
4.48744e-05
2.38825e-05
4.45009e-05
2.3353e-05
4.22509e-05
2.29869e-05
4.17854e-05
2.093e-05
3.99794e-05
2.24554e-05
3.3103e-05
2.14186e-05
2.72345e-05
2.02406e-05
2.33671e-05
1.851e-05
2.39713e-05
2.11464e-05
3.03194e-05
2.35719e-05
3.09424e-05
2.51837e-05
2.7536e-05
2.45142e-05
2.18188e-05
2.46148e-05
2.10454e-05
2.47142e-05
2.18178e-05
3.25441e-05
3.19375e-05
3.9042e-05
4.09716e-05
4.64934e-05
4.77499e-05
5.14109e-05
5.09202e-05
5.32804e-05
5.35304e-05
5.23606e-05
6.66652e-05
6.90293e-05
6.88576e-05
9.81269e-05
9.38501e-05
9.36e-05
0.000143164
9.72251e-05
0.000244598
0.000130699
0.000440312
0.000147221
0.00140654
5.52775e-05
6.90368e-05
0.000194586
8.25051e-05
6.89719e-05
6.0645e-05
5.22745e-05
4.86602e-05
5.8158e-05
5.23259e-05
4.25508e-05
3.87241e-05
3.46124e-05
3.5345e-05
3.17035e-05
3.46767e-05
3.30349e-05
3.00924e-05
3.51376e-05
3.02328e-05
3.51065e-05
2.90471e-05
3.5894e-05
2.81788e-05
3.37389e-05
2.27685e-05
2.83157e-05
2.17205e-05
2.34891e-05
1.81596e-05
1.97848e-05
1.61864e-05
2.37546e-05
1.93338e-05
3.29359e-05
2.10955e-05
3.30159e-05
2.09626e-05
2.62491e-05
2.0326e-05
1.95751e-05
2.42044e-05
1.50533e-05
2.6786e-05
1.77846e-05
2.79948e-05
2.79524e-05
3.91745e-05
4.03436e-05
4.40737e-05
4.95799e-05
4.92278e-05
5.0267e-05
5.28749e-05
4.9646e-05
5.97903e-05
5.78276e-05
7.30997e-05
6.52262e-05
0.000103253
8.26176e-05
9.15398e-05
0.000137676
8.08206e-05
0.000224232
0.000160693
0.000454663
0.000134772
0.00136672
3.70081e-05
0.000117188
9.83357e-05
0.000116092
7.17351e-05
8.87617e-05
4.64605e-05
6.43445e-05
5.93167e-05
4.93734e-05
3.08566e-05
4.42408e-05
2.62657e-05
4.10901e-05
2.28909e-05
4.30328e-05
2.21264e-05
3.9877e-05
2.21627e-05
4.21569e-05
2.32556e-05
4.08071e-05
2.2819e-05
4.09429e-05
2.12476e-05
3.9588e-05
2.13941e-05
3.27082e-05
2.13506e-05
2.70629e-05
1.97301e-05
2.3256e-05
1.8069e-05
2.39296e-05
2.08272e-05
2.92283e-05
2.30823e-05
3.05706e-05
2.46253e-05