/*--------------------------------*- C++ -*----------------------------------*\
| =========                 |                                                 |
| \\      /  F ield         | OpenFOAM: The Open Source CFD Toolbox           |
|  \\    /   O peration     | Version:  2206                                  |
|   \\  /    A nd           | Website:  www.openfoam.com                      |
|    \\/     M anipulation  |                                                 |
\*---------------------------------------------------------------------------*/
FoamFile
{
    version     2.0;
    format      ascii;
    arch        "LSB;label=32;scalar=64";
    class       volVectorField;
    location    "210";
    object      U;
}
// * * * * * * * * * * * * * * * * * * * * * * * * * * * * * * * * * * * * * //

dimensions      [0 1 -1 0 0 0 0];

internalField   nonuniform List<vector> 
93840
(
(0.721493 -0.998099 1.21682e-18)
(0.747134 0.558557 6.9724e-19)
(0.67896 -1.01794 2.19046e-19)
(0.306305 -0.498743 1.45286e-17)
(0.674674 0.568053 5.53222e-18)
(0.65097 -0.997823 -6.24388e-18)
(0.955182 0.556682 1.69594e-17)
(0.568264 -0.0892306 2.59585e-17)
(0.783464 0.552464 4.26516e-18)
(0.684138 -0.892519 -1.17476e-17)
(0.819174 -0.0694152 2.16545e-17)
(0.733831 0.0836654 1.60924e-17)
(0.762935 -0.102499 4.93501e-17)
(0.982016 0.476723 -7.4929e-17)
(0.722054 -0.792456 -8.66037e-18)
(0.842729 0.0495525 -6.52958e-17)
(0.693904 0.00771143 3.93257e-17)
(0.347965 0.0869929 1.14309e-17)
(0.638867 -0.354074 7.82969e-17)
(1.00213 0.333312 -7.37377e-17)
(0.716906 -0.752335 5.61286e-18)
(0.760038 0.00983691 -4.20211e-17)
(0.839219 0.0767454 -1.05387e-16)
(0.691585 0.0132583 2.25557e-18)
(0.815659 0.383508 -3.97688e-17)
(0.255472 -0.263679 7.71289e-17)
(0.834071 0.238966 5.39452e-17)
(0.699744 -0.808905 -4.93661e-18)
(0.835463 0.0495418 3.15878e-17)
(0.732 0.0161995 -4.70572e-17)
(0.922659 0.105054 -1.51313e-16)
(0.784308 -0.0417709 -4.06765e-17)
(0.863816 0.298901 3.37114e-17)
(0.470157 -0.243134 -6.91995e-17)
(0.789477 0.273395 -5.52127e-17)
(0.663073 -0.834268 -9.03046e-18)
(0.761614 0.011639 6.58399e-17)
(0.792274 0.0756141 4.05111e-17)
(0.688372 0.0178081 -5.64178e-17)
(0.801816 0.0285558 -1.19259e-16)
(0.772105 -0.0512947 -8.18696e-17)
(0.950133 0.267056 -2.59461e-17)
(0.557404 -0.0544014 -2.47684e-17)
(0.775384 0.298676 4.32693e-17)
(0.634515 -0.842438 -2.48837e-18)
(0.875721 0.051612 -3.35626e-17)
(0.725713 0.0176049 4.35312e-17)
(0.845917 0.0945375 6.82579e-17)
(0.608809 0.034159 1.52492e-16)
(0.800003 0.011006 5.84122e-17)
(0.770308 -0.0355657 -7.06181e-17)
(0.777063 0.0174497 6.72185e-17)
(0.640412 -0.0642548 -3.33103e-18)
(0.794268 0.307782 -4.05519e-17)
(0.614333 -0.846021 -4.0582e-18)
(0.791086 0.00691733 1.27149e-16)
(0.835881 0.0713795 -3.62137e-17)
(0.68066 0.0203043 7.20364e-17)
(0.805412 0.0353489 5.74867e-17)
(0.735075 0.0244893 1.60209e-17)
(0.786912 0.00331994 2.27925e-18)
(0.721924 0.00889615 -5.17632e-17)
(0.733954 0.0524979 -3.28763e-17)
(0.67883 -0.0639689 -2.79521e-17)
(0.77999 0.321881 1.97268e-17)
(0.598314 -0.847584 -5.81985e-18)
(0.894784 0.0536818 -8.56426e-17)
(0.773157 0.00960188 1.20536e-16)
(0.864262 0.0916971 -4.36237e-18)
(0.675762 0.033119 -1.65055e-18)
(0.79606 0.0253629 3.86299e-17)
(0.694774 0.0240831 -8.56195e-17)
(0.778009 0.0165905 -7.54435e-17)
(0.732533 0.0300075 -1.15405e-16)
(0.769506 0.0125048 3.48999e-17)
(0.693745 -0.0572663 -5.91241e-18)
(0.792514 0.320712 -3.19259e-17)
(0.585647 -0.84788 -2.78948e-18)
(0.778419 0.0104837 1.67822e-17)
(0.890088 0.0804429 -9.54517e-17)
(0.712905 0.0326876 1.83192e-16)
(0.835285 0.0439658 6.55179e-17)
(0.720228 0.0255875 5.15054e-17)
(0.801527 0.0126297 4.94809e-17)
(0.771563 0.00957377 1.58665e-16)
(0.806743 0.045093 6.97545e-17)
(0.70618 0.00502694 -6.31887e-17)
(0.732159 0.0313405 -1.33019e-17)
(0.705623 -0.056814 -2.19097e-17)
(0.78128 0.328038 1.06076e-17)
(0.57495 -0.84764 -7.0296e-18)
(0.882967 0.0552928 -1.97173e-16)
(0.790578 0.0109253 -4.45319e-17)
(0.878534 0.0863184 -1.4301e-16)
(0.711034 0.0275618 9.78981e-17)
(0.81409 0.0287054 8.76707e-17)
(0.735507 0.0294653 8.04721e-17)
(0.80582 0.0232597 2.37162e-17)
(0.715267 0.0313187 -5.26921e-17)
(0.762154 0.0146244 -2.32195e-17)
(0.743866 0.0191431 -1.14671e-16)
(0.772712 0.0120083 3.04693e-17)
(0.712174 -0.0513471 -1.29424e-17)
(0.789934 0.326988 -2.76189e-17)
(0.565895 -0.846918 -2.87859e-18)
(0.768625 0.0133285 -9.42214e-18)
(0.912502 0.0737247 -2.236e-16)
(0.75028 0.0222748 -7.89283e-17)
(0.853866 0.0378991 -2.97542e-16)
(0.732082 0.0262801 -1.63893e-16)
(0.841095 0.0262627 -1.22738e-16)
(0.761081 0.0110322 -8.09589e-17)
(0.813842 0.0390001 -4.04496e-17)
(0.757033 0.00562729 1.29394e-16)
(0.808807 0.0451812 8.42296e-17)
(0.71804 0.00380727 -4.41046e-17)
(0.737078 0.0277922 -8.73284e-18)
(0.718329 -0.0505371 -1.97639e-17)
(0.779727 0.331611 7.48766e-18)
(0.55789 -0.845928 -7.1282e-18)
(0.87782 0.0544521 8.39796e-17)
(0.801766 0.0044677 9.42252e-17)
(0.90279 0.0892229 -1.00938e-16)
(0.73153 0.0334531 9.59046e-18)
(0.836212 0.0376369 -1.00238e-16)
(0.774066 0.0309478 -4.14816e-17)
(0.809427 0.0289451 9.54427e-17)
(0.743957 0.0303603 9.5367e-17)
(0.806105 0.0214497 7.323e-17)
(0.730361 0.031393 -4.55409e-17)
(0.757984 0.0158937 -3.64021e-17)
(0.7447 0.0147317 -1.11979e-16)
(0.777073 0.0143992 2.10104e-17)
(0.721684 -0.0465352 -1.66731e-17)
(0.78734 0.329569 -2.5092e-17)
(0.550801 -0.844576 -3.40671e-18)
(0.771618 0.015776 1.1311e-16)
(0.916032 0.0796115 1.34445e-16)
(0.771305 0.0340738 1.00549e-16)
(0.864284 0.0408142 -7.73609e-17)
(0.753531 0.0222878 2.57406e-17)
(0.862328 0.0302461 1.14083e-16)
(0.756107 0.012833 7.28293e-17)
(0.837526 0.0430052 -1.16784e-18)
(0.768546 0.0158849 -5.27931e-17)
(0.817202 0.0378436 -4.01915e-17)
(0.75849 0.00191924 1.20927e-16)
(0.806512 0.0421818 1.02664e-16)
(0.725472 0.00488992 -3.74333e-17)
(0.737815 0.027564 6.10457e-18)
(0.725804 -0.0458358 -2.02038e-17)
(0.778278 0.333477 3.96873e-18)
(0.544378 -0.843616 -6.27308e-18)
(0.875198 0.0631612 1.59792e-17)
(0.798528 0.0243121 1.13996e-16)
(0.912163 0.0865187 5.63487e-17)
(0.738972 0.0254306 1.65272e-16)
(0.845958 0.0409063 -2.93192e-17)
(0.785314 0.0357405 -6.71864e-17)
(0.829492 0.0262422 -2.51975e-16)
(0.772977 0.030063 -1.25984e-16)
(0.819255 0.0267223 1.37853e-17)
(0.745116 0.03172 8.18976e-17)
(0.80523 0.0208512 8.02162e-17)
(0.736832 0.0275539 -3.72945e-17)
(0.760087 0.0197644 -7.6713e-18)
(0.749986 0.0152538 -1.08409e-16)
(0.778953 0.0162153 2.19326e-17)
(0.7284 -0.042801 -1.7645e-17)
(0.785572 0.331456 -2.34282e-17)
(0.538783 -0.841603 -4.88471e-18)
(0.771416 0.0241084 4.79734e-17)
(0.907295 0.0746902 -1.28989e-17)
(0.766432 0.0248985 7.00604e-17)
(0.863948 0.0420019 1.30803e-16)
(0.762311 0.0259693 1.32383e-16)
(0.873112 0.0353138 -7.5309e-18)
(0.767887 0.0121421 1.43436e-18)
(0.853118 0.0423911 8.42121e-17)
(0.767588 0.010395 1.28313e-16)
(0.837503 0.0404237 7.38691e-18)
(0.766837 0.0153938 -8.69167e-17)
(0.812157 0.0374984 -5.6335e-17)
(0.755839 0.00591306 1.28594e-16)
(0.808939 0.0438551 1.01838e-16)
(0.726895 0.00662111 -4.30233e-17)
(0.741472 0.0305118 4.93679e-19)
(0.731699 -0.0426445 -2.0566e-17)
(0.777886 0.334189 1.8003e-18)
(0.533395 -0.84063 -6.72576e-18)
(0.876822 0.062093 -6.93983e-17)
(0.788624 0.0232951 1.55517e-17)
(0.910654 0.0868378 -3.42016e-17)
(0.751159 0.0289868 -2.14506e-17)
(0.858453 0.0416707 3.57564e-17)
(0.785748 0.0375012 -9.60654e-17)
(0.839737 0.0257974 -4.74683e-17)
(0.78453 0.0334803 -9.68705e-17)
(0.837674 0.0310153 -2.53454e-16)
(0.770718 0.0317399 -1.9028e-16)
(0.820565 0.0261591 -3.63107e-17)
(0.74711 0.0295685 3.70558e-17)
(0.800676 0.0248833 8.92551e-17)
(0.742418 0.0257819 -4.72754e-17)
(0.764214 0.022165 -1.13113e-17)
(0.746851 0.0106651 -1.28405e-16)
(0.780369 0.0204319 1.37286e-17)
(0.73405 -0.0407736 -1.8208e-17)
(0.783527 0.332471 -2.23095e-17)
(0.528935 -0.838326 -6.44692e-18)
(0.779869 0.0194259 -2.75397e-16)
(0.902967 0.0857042 -1.4435e-16)
(0.770562 0.0194356 -2.89387e-17)
(0.875 0.0458257 -1.53406e-16)
(0.774254 0.0253554 -6.7881e-17)
(0.87242 0.0406745 9.41777e-17)
(0.77605 0.0135548 2.7837e-16)
(0.866429 0.0477028 1.39793e-16)
(0.774637 0.0142106 7.81547e-18)
(0.850246 0.044751 4.64006e-17)
(0.767663 0.0114408 1.2237e-16)
(0.835831 0.0392412 5.08724e-17)
(0.767843 0.0146421 -6.83826e-17)
(0.812628 0.0377739 -5.22684e-17)
(0.75282 0.00357303 1.25913e-16)
(0.805623 0.0402593 1.04832e-16)
(0.72952 4.33867e-05 -6.74476e-17)
(0.742961 0.0321478 -1.54156e-17)
(0.736359 -0.0409337 -1.95348e-17)
(0.7772 0.334278 -6.85864e-19)
(0.524357 -0.836921 -5.3973e-18)
(0.882992 0.0656194 3.81429e-16)
(0.792423 0.0181572 -1.886e-16)
(0.905132 0.0936422 -6.65213e-17)
(0.760451 0.0320176 -1.56105e-17)
(0.867902 0.0421839 -1.4744e-16)
(0.780566 0.0420966 -7.5927e-17)
(0.843311 0.0260978 -5.45104e-17)
(0.784129 0.0370008 -8.86676e-17)
(0.841207 0.026238 -1.19773e-17)
(0.783154 0.0354538 -5.15673e-17)
(0.839526 0.0295628 -2.40162e-16)
(0.769002 0.0334113 -1.85869e-16)
(0.819407 0.0261866 -3.50414e-17)
(0.750053 0.0274327 7.11785e-17)
(0.797961 0.0268351 1.11952e-16)
(0.743646 0.0258244 -3.50753e-17)
(0.764678 0.0201839 -3.01352e-17)
(0.747415 0.0132963 -9.91022e-17)
(0.78028 0.0228214 -4.72156e-18)
(0.738218 -0.0395267 -1.79335e-17)
(0.782145 0.332571 -2.20046e-17)
(0.520501 -0.834745 -6.37934e-18)
(0.791852 0.0244582 -2.51804e-16)
(0.905501 0.0865437 4.48076e-16)
(0.777349 0.0366985 1.49473e-17)
(0.877583 0.0514653 -3.86254e-17)
(0.782302 0.0206318 9.38558e-17)
(0.864944 0.0438156 3.91212e-17)
(0.776989 0.0124979 7.68572e-18)
(0.873756 0.0494164 1.73303e-17)
(0.786792 0.00778659 2.20069e-16)
(0.86677 0.0459693 2.01379e-16)
(0.778179 0.0138869 1.47449e-17)
(0.842626 0.0440727 4.10949e-17)
(0.767673 0.0153045 1.45892e-16)
(0.833785 0.0372405 6.16807e-17)
(0.770241 0.014231 -5.6898e-17)
(0.812303 0.0387425 -7.69498e-17)
(0.751661 0.00427441 1.17334e-16)
(0.80248 0.0451312 1.38196e-16)
(0.73518 0.00884388 -2.98162e-17)
(0.744709 0.0354995 -1.68204e-17)
(0.740154 -0.0397781 -2.14089e-17)
(0.775634 0.334217 -9.28045e-19)
(0.516626 -0.832985 -5.91896e-18)
(0.890626 0.0698602 7.57276e-18)
(0.799446 0.0397177 -3.1332e-16)
(0.90686 0.0792862 1.76702e-16)
(0.775144 0.0226569 4.28304e-17)
(0.874342 0.0426929 8.39696e-18)
(0.78941 0.0434261 1.29141e-16)
(0.847136 0.0328384 -1.28451e-17)
(0.785724 0.0438924 -3.24753e-17)
(0.849125 0.029449 -4.59443e-17)
(0.782816 0.0376796 -1.17269e-16)
(0.848921 0.0268434 -9.40875e-18)
(0.7821 0.0345352 -2.16125e-17)
(0.834093 0.0289678 -2.02753e-16)
(0.769998 0.0332618 -2.40851e-16)
(0.822249 0.0286428 -4.33315e-17)
(0.749042 0.0292801 7.7315e-17)
(0.799922 0.0277957 1.1183e-16)
(0.74488 0.0250556 -2.83253e-17)
(0.767982 0.0245955 3.08403e-17)
(0.745753 0.0117128 -9.65355e-17)
(0.782146 0.0272612 2.02944e-17)
(0.741826 -0.0390874 -1.81241e-17)
(0.779056 0.332545 -2.00099e-17)
(0.513335 -0.830704 -3.26223e-18)
(0.801052 0.0316998 6.66674e-18)
(0.904744 0.0818282 -3.65582e-17)
(0.786334 0.0114311 -3.16075e-16)
(0.878744 0.0529618 1.79269e-16)
(0.782397 0.0238448 9.47721e-17)
(0.869187 0.0463766 -1.46155e-16)
(0.779107 0.014369 -1.73602e-16)
(0.866888 0.0528313 -1.1952e-16)
(0.786729 0.00605732 -3.63058e-17)
(0.868999 0.0492739 -5.64354e-17)
(0.789931 0.0140684 1.74298e-16)
(0.862838 0.0427715 1.93905e-16)
(0.782604 0.0100926 4.68492e-17)
(0.842528 0.0425915 2.69916e-17)
(0.767734 0.0166234 1.11459e-16)
(0.829321 0.0392674 5.31591e-17)
(0.767759 0.0107589 -3.08433e-17)
(0.814267 0.0378089 -7.80639e-17)
(0.748474 0.00587533 1.1411e-16)
(0.794375 0.0478607 1.29157e-16)
(0.742265 0.00984709 -6.90489e-17)
(0.746621 0.0382737 -1.82379e-17)
(0.743079 -0.040073 -2.20048e-17)
(0.773321 0.334068 -1.89982e-18)
(0.509902 -0.828759 -9.13459e-18)
(0.894247 0.0645004 -1.08794e-16)
(0.814319 0.0307921 -6.31712e-17)
(0.905819 0.104297 5.35292e-17)
(0.78544 0.0386547 -4.80599e-16)
(0.877414 0.0441784 -1.33069e-16)
(0.794927 0.0417423 -1.84017e-17)
(0.848579 0.0327224 -9.65534e-17)
(0.781639 0.0475933 4.58337e-17)
(0.852685 0.0323776 3.75454e-17)
(0.789378 0.0466479 -3.63334e-17)
(0.844806 0.0271746 -3.35474e-17)
(0.778914 0.0396892 -1.10818e-16)
(0.843851 0.0243577 1.56261e-17)
(0.783416 0.0390341 -1.35057e-17)
(0.841025 0.0272788 -1.89319e-16)
(0.766435 0.0290767 -2.39924e-16)
(0.82259 0.0296978 -4.53044e-17)
(0.748168 0.0272828 3.85974e-17)
(0.800408 0.0284613 1.33043e-16)
(0.745129 0.0273995 -3.45972e-17)
(0.77353 0.0266954 4.65592e-17)
(0.743957 0.0111208 -1.00414e-16)
(0.782289 0.0295735 -4.91929e-19)
(0.744798 -0.0401519 -1.88815e-17)
(0.775887 0.333188 -1.92257e-17)
(0.507207 -0.826164 -3.79114e-18)
(0.799185 0.0159187 5.04718e-16)
(0.907025 0.0912361 1.4698e-16)
(0.790808 0.00917468 5.82959e-17)
(0.877779 0.0571942 3.41811e-16)
(0.78094 0.0168331 -9.1792e-17)
(0.874813 0.0449765 2.6544e-17)
(0.783259 0.0150167 1.17929e-16)
(0.862365 0.0513866 1.56994e-16)
(0.785352 0.0131745 -6.41711e-17)
(0.864229 0.0535493 -1.22049e-16)
(0.78609 0.00714134 -4.27145e-17)
(0.867948 0.0481223 -9.27835e-17)
(0.784883 0.0141185 1.15274e-16)
(0.857982 0.0460543 1.86218e-16)
(0.78181 0.01293 7.478e-17)
(0.842527 0.0418738 1.10592e-17)
(0.767691 0.0148113 9.3668e-17)
(0.826066 0.0407083 9.79411e-17)
(0.762623 0.0133949 -2.60205e-17)
(0.812558 0.0393158 -7.00717e-17)
(0.748371 0.000440052 9.04546e-17)
(0.799465 0.0485618 9.56903e-17)
(0.744846 0.0192547 -1.31625e-17)
(0.749903 0.0410477 -2.76819e-17)
(0.745688 -0.0415167 -2.01492e-17)
(0.771141 0.333516 -2.48664e-18)
(0.504225 -0.824173 -8.7741e-18)
(0.891891 0.0742453 -5.42529e-16)
(0.814714 0.0170956 2.8584e-16)
(0.903726 0.0906602 1.63114e-16)
(0.795706 0.0414553 1.23036e-16)
(0.868097 0.0409171 4.81579e-16)
(0.798158 0.04592 3.23916e-16)
(0.850784 0.0336301 3.24902e-16)
(0.78278 0.0479015 1.8029e-16)
(0.8517 0.0324125 -4.30137e-17)
(0.785034 0.0477967 3.21053e-18)
(0.85325 0.0317703 3.80061e-17)
(0.788593 0.0451392 -3.72371e-17)
(0.843707 0.0269788 1.20282e-17)
(0.783448 0.0411925 -8.64136e-17)
(0.846026 0.0263312 -1.02899e-17)
(0.782911 0.0375484 -7.62451e-18)
(0.833379 0.0287696 -2.01912e-16)
(0.764178 0.0320536 -2.81962e-16)
(0.824542 0.0297322 -7.96584e-17)
(0.746472 0.0275663 5.33064e-17)
(0.800449 0.0290514 1.05931e-16)
(0.743582 0.0266983 -4.49137e-17)
(0.773189 0.0218665 -4.43056e-17)
(0.743275 0.00703667 -8.65546e-17)
(0.782906 0.0345243 1.99592e-17)
(0.747397 -0.0419476 -1.85988e-17)
(0.771541 0.334516 -1.6658e-17)
(0.502198 -0.821217 -4.5522e-18)
(0.79339 0.0311761 8.31207e-17)
(0.903973 0.0912255 -7.89461e-16)
(0.791633 0.0520904 -8.26374e-17)
(0.880548 0.0542484 6.20558e-17)
(0.778541 0.0144876 -2.9472e-16)
(0.878018 0.0511297 -2.52174e-16)
(0.791525 0.0152655 -3.19108e-16)
(0.86329 0.0505876 -3.36092e-16)
(0.791084 0.00969831 -1.39433e-16)
(0.860751 0.0553419 1.42865e-16)
(0.788141 0.0139188 8.42252e-18)
(0.859908 0.0533091 -1.2331e-16)
(0.788299 0.0106032 -2.41446e-17)
(0.858655 0.0452383 -1.11299e-16)
(0.792432 0.0160753 1.30366e-16)
(0.856901 0.0428822 1.94705e-16)
(0.777501 0.00518233 5.90852e-17)
(0.844458 0.0420312 9.06582e-18)
(0.767081 0.0147016 1.33953e-16)
(0.823649 0.0421713 1.76283e-17)
(0.764223 0.0131918 -9.31275e-18)
(0.811924 0.0417457 -5.21321e-17)
(0.748277 0.00285049 6.60613e-17)
(0.790252 0.0469904 1.18929e-16)
(0.746833 0.0141607 -7.88617e-17)
(0.752712 0.0445255 -2.66459e-17)
(0.748218 -0.043599 -2.05651e-17)
(0.76711 0.335775 -5.67018e-18)
(0.499517 -0.818792 -8.57265e-18)
(0.879195 0.0720221 3.27242e-16)
(0.800165 0.0630056 4.32153e-16)
(0.896001 0.0663274 -3.44308e-16)
(0.8011 0.0234247 -1.92927e-16)
(0.868357 0.0445413 -9.32691e-17)
(0.801785 0.048478 3.34657e-17)
(0.855773 0.0334138 8.44567e-17)
(0.783496 0.0414832 1.6292e-16)
(0.85417 0.0365549 3.25587e-16)
(0.78056 0.0481378 2.44714e-16)
(0.847988 0.0347831 -4.44325e-18)
(0.788351 0.0505269 5.50419e-18)
(0.856271 0.0311833 6.25903e-17)
(0.791161 0.0448874 -4.50026e-17)
(0.850935 0.0263068 8.92496e-18)
(0.782599 0.0400865 -8.21535e-17)
(0.840186 0.0208663 -2.33266e-17)
(0.778736 0.0363107 1.46326e-17)
(0.839647 0.0263142 -1.34379e-16)
(0.761703 0.026403 -2.06164e-16)
(0.822403 0.0291796 -5.0935e-17)
(0.750528 0.0270164 2.25825e-17)
(0.795748 0.0283119 1.42863e-16)
(0.745924 0.0255308 -2.3949e-17)
(0.772694 0.0373107 3.62743e-17)
(0.74648 0.0099878 -9.18833e-17)
(0.782339 0.0378572 3.38827e-18)
(0.74994 -0.0448153 -1.85193e-17)
(0.765571 0.337372 -1.67168e-17)
(0.498277 -0.81557 -5.0247e-18)
(0.789562 0.0399706 -4.54686e-16)
(0.899971 0.0679186 2.7384e-16)
(0.787811 0.0366577 4.97332e-16)
(0.878558 0.0616751 -3.97135e-16)
(0.783856 0.0221432 -3.70452e-16)
(0.878764 0.0542812 -3.47003e-16)
(0.798851 0.0182347 -3.57641e-16)
(0.864344 0.0488825 -2.19351e-16)
(0.791558 0.0127812 -2.95126e-16)
(0.858028 0.0553262 -3.98415e-16)
(0.792203 0.0144942 -1.91142e-16)
(0.858791 0.0554495 1.2049e-16)
(0.7887 0.0165177 -2.19031e-17)
(0.859156 0.0501612 -1.01765e-16)
(0.790293 0.0134273 -5.46736e-17)
(0.863123 0.0466253 -1.00682e-16)
(0.784944 0.0191788 9.00034e-17)
(0.849326 0.0456453 2.13055e-16)
(0.776529 0.0147926 5.84568e-17)
(0.842454 0.0411141 1.3153e-18)
(0.767054 0.0131426 1.60729e-16)
(0.824909 0.0393759 1.06417e-16)
(0.76368 0.011966 1.1333e-17)
(0.811062 0.0417976 -6.24136e-17)
(0.747811 0.0071882 5.39741e-17)
(0.796456 0.0413579 5.19539e-17)
(0.742289 0.0201195 -6.68353e-18)
(0.757842 0.0487983 -8.97163e-18)
(0.75053 -0.0477905 -2.05869e-17)
(0.76146 0.339599 -3.63885e-18)
(0.496215 -0.812774 -8.3068e-18)
(0.866625 0.070819 3.80219e-16)
(0.799831 0.0509954 -4.80241e-16)
(0.906778 0.0928862 -1.65166e-16)
(0.806451 0.0414411 7.4267e-16)
(0.875087 0.0428996 3.19298e-16)
(0.807184 0.0449574 1.00192e-16)
(0.860663 0.0348137 6.9022e-17)
(0.785189 0.0405562 1.54281e-16)
(0.858453 0.0312171 1.55283e-16)
(0.780426 0.0474146 1.37771e-16)
(0.845983 0.0368243 3.26194e-16)
(0.784418 0.0512598 2.9159e-16)
(0.857647 0.0374893 3.75286e-17)
(0.787164 0.0490344 2.99667e-17)
(0.856626 0.0286059 4.15269e-17)
(0.788703 0.0449531 -4.32539e-17)
(0.847628 0.0256237 1.1994e-17)
(0.778732 0.0405483 -7.4835e-17)
(0.840252 0.0232193 -3.3832e-17)
(0.775031 0.0374123 3.70507e-17)
(0.84099 0.0308072 -1.63906e-16)
(0.762293 0.0365874 -4.0088e-16)
(0.824355 0.0274866 -1.19354e-16)
(0.748661 0.0297073 5.13815e-17)
(0.79638 0.0314012 1.37576e-16)
(0.751611 0.0239246 -6.9253e-17)
(0.778319 0.0418227 5.74493e-17)
(0.739985 0.0162109 -8.41569e-17)
(0.78477 0.042877 -3.89448e-18)
(0.751627 -0.0510038 -1.93221e-17)
(0.757257 0.344819 -1.93684e-17)
(0.495942 -0.809359 -5.54661e-18)
(0.781192 0.0322676 -2.80089e-17)
(0.88445 0.088384 6.30042e-16)
(0.777285 0.019411 -1.66113e-16)
(0.874071 0.0649747 -3.8908e-16)
(0.786503 0.0154299 4.35168e-16)
(0.880516 0.049882 4.02817e-16)
(0.801985 0.0237125 4.61288e-16)
(0.86215 0.0427427 1.26888e-16)
(0.799699 0.0131552 -1.83487e-16)
(0.863265 0.0485798 -1.85637e-16)
(0.797889 0.0139128 -2.42269e-16)
(0.860769 0.0569523 -3.91025e-16)
(0.793064 0.0171323 -2.44751e-16)
(0.854503 0.0562405 1.14416e-16)
(0.789012 0.0198536 -3.16747e-18)
(0.86162 0.0503706 -8.06249e-17)
(0.790244 0.0140046 -4.29116e-17)
(0.860197 0.0408277 -8.02891e-17)
(0.785894 0.0197018 8.21932e-17)
(0.845282 0.042004 2.27559e-16)
(0.778455 0.0133101 4.12786e-17)
(0.841345 0.0436917 1.7019e-17)
(0.767981 0.0117865 1.14522e-16)
(0.820017 0.0439714 5.93732e-17)
(0.762364 0.014302 -2.67342e-18)
(0.812509 0.0467563 -9.79633e-17)
(0.749317 0.0136038 8.71649e-17)
(0.799582 0.043235 6.15404e-17)
(0.740999 0.0200257 -3.33594e-18)
(0.762128 0.05341 -1.11239e-17)
(0.751178 -0.0560377 -2.04635e-17)
(0.75364 0.350634 -4.81823e-18)
(0.495313 -0.806359 -1.43738e-17)
(0.859045 0.0714943 -1.36002e-16)
(0.796291 0.0383858 -1.49024e-16)
(0.897989 0.0954679 4.7547e-16)
(0.804003 0.0415253 -4.68411e-17)
(0.876242 0.0403721 -8.23169e-16)
(0.802292 0.0470538 -4.34595e-16)
(0.857848 0.0358254 -3.0703e-16)
(0.784729 0.039034 -3.92125e-16)
(0.85984 0.0321328 -2.26261e-16)
(0.785563 0.0420658 1.02414e-16)
(0.856628 0.0330543 1.44801e-16)
(0.780691 0.0472954 1.18197e-16)
(0.8529 0.0368053 3.26038e-16)
(0.783365 0.0522878 2.82722e-16)
(0.851859 0.0347345 1.19877e-17)
(0.78471 0.0491311 6.6321e-17)
(0.849102 0.0279609 6.14854e-17)
(0.787188 0.0450728 -5.83818e-17)
(0.852567 0.0232651 2.95166e-17)
(0.787588 0.0364328 -6.56032e-17)
(0.848083 0.0268895 6.73358e-17)
(0.773453 0.0397041 2.96408e-17)
(0.831379 0.0265006 -1.66357e-16)
(0.762945 0.0271135 -1.37219e-16)
(0.818593 0.0306718 -9.90173e-17)
(0.750466 0.0302284 4.27518e-17)
(0.797968 0.033904 1.64483e-16)
(0.745433 0.0202628 -9.83815e-17)
(0.784956 0.0406481 5.56602e-17)
(0.741998 0.0119441 -1.34886e-16)
(0.784832 0.0487811 -4.61775e-18)
(0.75077 -0.0616364 -1.47895e-17)
(0.745098 0.357544 -1.93742e-17)
(0.494541 -0.802712 -2.01563e-18)
(0.771825 0.0266458 -8.0113e-17)
(0.873 0.0890973 -2.56195e-16)
(0.78648 0.017731 -4.9016e-16)
(0.873019 0.0657498 2.80313e-16)
(0.789966 0.0148877 5.54464e-16)
(0.875165 0.0525295 1.95096e-16)
(0.801265 0.0242778 2.78239e-17)
(0.860712 0.039072 1.57357e-16)
(0.798605 0.0154761 5.38865e-16)
(0.864245 0.0472536 3.3551e-16)
(0.796639 0.0159764 -1.07233e-16)
(0.86196 0.0524267 -1.89696e-16)
(0.794743 0.0147856 -2.38106e-16)
(0.85371 0.0563385 -4.22787e-16)
(0.794384 0.0179647 -2.64714e-16)
(0.859108 0.0555185 1.25576e-16)
(0.789557 0.0198285 -8.67605e-18)
(0.863587 0.0484847 -6.31562e-17)
(0.789354 0.00976137 8.78506e-18)
(0.855943 0.044467 -1.40264e-16)
(0.791523 0.019483 9.77393e-17)
(0.850252 0.0395124 1.60359e-16)
(0.777677 0.0172462 1.19561e-16)
(0.840575 0.0345203 -4.92303e-17)
(0.764749 0.0106329 1.82762e-16)
(0.818582 0.0412469 1.07628e-16)
(0.761082 0.00896141 -1.75085e-17)
(0.811698 0.0430728 -4.79575e-17)
(0.751196 0.016769 9.34758e-17)
(0.80121 0.04556 9.72974e-17)
(0.738578 0.0151229 -1.24063e-17)
(0.768669 0.0586238 -9.05426e-18)
(0.745367 -0.0654057 -2.49122e-17)
(0.791298 0.306796 -6.06615e-18)
(0.492042 -0.802098 -1.11309e-17)
(0.846633 0.0753985 5.01993e-17)
(0.781316 0.0510694 -2.63809e-17)
(0.878972 0.10982 -3.65903e-17)
(0.801814 0.0403745 -5.43667e-16)
(0.876121 0.0437574 -2.00541e-18)
(0.802971 0.0446509 2.95993e-16)
(0.856437 0.0341669 1.23657e-16)
(0.785885 0.0396813 1.52953e-16)
(0.856816 0.0342259 1.95172e-17)
(0.786547 0.0450407 -3.18684e-16)
(0.848419 0.0320244 -3.33064e-16)
(0.786763 0.0461767 1.62684e-18)
(0.858137 0.0331854 1.44752e-16)
(0.783083 0.0481388 1.28366e-16)
(0.851628 0.0365141 2.36714e-16)
(0.785328 0.0500879 3.10566e-16)
(0.85119 0.034107 3.79114e-17)
(0.784594 0.0462963 8.92908e-17)
(0.850261 0.0241356 8.18998e-17)
(0.787502 0.0453251 -6.81706e-17)
(0.852033 0.0254073 3.6938e-18)
(0.7822 0.0352937 -3.81257e-17)
(0.840485 0.0194857 -1.07911e-16)
(0.775549 0.0402144 -6.01165e-18)
(0.838248 0.0298487 -9.54692e-17)
(0.761029 0.0376292 -3.97665e-16)
(0.820634 0.0293472 -9.30633e-17)
(0.753927 0.0304858 7.48341e-17)
(0.80363 0.0383274 1.19369e-16)
(0.745135 0.0157739 -6.57081e-17)
(0.787088 0.0358641 6.14061e-19)
(0.735921 0.0131526 -1.26158e-16)
(0.787626 0.0563706 -2.05081e-18)
(0.713295 -0.038869 -1.37071e-17)
(0.790656 0.314028 -2.0011e-17)
(0.491263 -0.79971 2.57043e-18)
(0.774409 0.0342257 -1.20077e-16)
(0.857076 0.0809362 1.83888e-18)
(0.785605 0.0341107 4.26142e-18)
(0.873199 0.0717651 3.22061e-16)
(0.789889 0.0206171 -4.36347e-16)
(0.873555 0.0538042 -3.94155e-16)
(0.806199 0.0285188 -1.59548e-16)
(0.862925 0.0417448 -4.1049e-17)
(0.804053 0.0233943 -1.46214e-16)
(0.863036 0.0435687 -5.73971e-18)
(0.798206 0.0185817 4.57156e-16)
(0.866967 0.0490338 4.16236e-16)
(0.795348 0.0174759 -3.02166e-18)
(0.856352 0.0549639 -1.75383e-16)
(0.793559 0.016912 -2.39317e-16)
(0.855077 0.0545201 -3.89088e-16)
(0.793855 0.0190032 -3.53447e-16)
(0.85572 0.0554306 9.03747e-17)
(0.79041 0.0214106 4.14906e-18)
(0.860954 0.0486715 -4.98043e-17)
(0.786951 0.014083 3.9215e-18)
(0.857844 0.0363056 -6.95472e-17)
(0.786665 0.00939099 8.89159e-17)
(0.847662 0.0425704 3.14678e-16)
(0.782602 0.0137478 9.49761e-17)
(0.8363 0.0450386 3.24271e-17)
(0.766168 0.0149255 4.61561e-17)
(0.819149 0.042834 3.57068e-17)
(0.763903 0.0153524 7.39397e-18)
(0.814994 0.0508919 -8.81938e-17)
(0.74838 0.0158879 5.08277e-17)
(0.800213 0.0479246 1.31858e-16)
(0.735211 0.0204486 1.6642e-17)
(0.782693 0.0546961 -2.15079e-17)
(0.718883 -0.0379636 -2.01325e-17)
(0.775984 0.319593 -7.1555e-18)
(0.490084 -0.797584 -9.62916e-18)
(0.843367 0.0769606 2.70907e-16)
(0.787541 0.0793477 -5.75985e-17)
(0.878441 0.0812871 8.43746e-17)
(0.807903 0.0325101 -8.79644e-17)
(0.867629 0.0455749 4.95406e-16)
(0.801989 0.0419001 1.5665e-16)
(0.857855 0.0361606 -1.57408e-16)
(0.78511 0.0405463 -5.80716e-17)
(0.862221 0.0374112 2.41112e-17)
(0.788685 0.0487344 1.71616e-16)
(0.85264 0.0327967 8.47132e-17)
(0.785539 0.0460233 -2.88286e-16)
(0.850021 0.0310825 -3.91527e-16)
(0.785319 0.0498385 -2.79389e-17)
(0.856723 0.0348802 1.20789e-16)
(0.784423 0.0488591 9.26092e-17)
(0.850543 0.0340915 3.02214e-16)
(0.784632 0.0538604 3.92737e-16)
(0.849724 0.0339931 5.16483e-17)
(0.785379 0.0474993 8.60407e-17)
(0.849901 0.0255231 6.16834e-17)
(0.791643 0.045278 -3.56774e-17)
(0.849678 0.0240366 -3.35455e-17)
(0.781677 0.0384655 -6.49446e-17)
(0.842028 0.0208216 -3.67934e-17)
(0.771484 0.0361601 8.33356e-17)
(0.834691 0.0249565 -1.30634e-16)
(0.761149 0.031445 -2.73577e-16)
(0.821838 0.027663 -1.50717e-16)
(0.754194 0.0231101 6.3299e-18)
(0.804786 0.0366394 1.67074e-16)
(0.742991 0.0193395 -5.90417e-17)
(0.784414 0.0332263 -4.73295e-17)
(0.737162 0.0140399 -8.43821e-17)
(0.795463 0.0452567 -6.68279e-18)
(0.724981 -0.0435286 -1.87644e-17)
(0.777282 0.328622 -2.09689e-17)
(0.489477 -0.794872 -4.85922e-18)
(0.782779 0.0370027 3.06663e-17)
(0.852226 0.0712118 3.7195e-16)
(0.791028 0.0522175 1.90367e-16)
(0.874533 0.0775194 1.31152e-16)
(0.791186 0.020552 -3.55698e-17)
(0.876673 0.0524595 1.29418e-16)
(0.80558 0.0312584 2.84159e-16)
(0.866307 0.0438411 1.61134e-16)
(0.80884 0.025236 9.29482e-17)
(0.868793 0.0447339 3.00435e-17)
(0.799981 0.0206873 -1.82192e-16)
(0.866323 0.0458711 -9.12119e-17)
(0.794854 0.0213094 4.18552e-16)
(0.862621 0.0502295 4.67314e-16)
(0.794814 0.0180374 2.10516e-17)
(0.850113 0.0569756 -1.76354e-16)
(0.79366 0.0189483 -1.95384e-16)
(0.855007 0.0556383 -3.73255e-16)
(0.791882 0.0179179 -4.1948e-16)
(0.85335 0.0533119 7.83857e-17)
(0.787459 0.020727 1.79397e-17)
(0.859471 0.0530676 -9.98776e-17)
(0.786954 0.0127928 1.15458e-17)
(0.857505 0.0433882 -1.54558e-16)
(0.787134 0.0199474 4.69372e-17)
(0.851672 0.0390553 2.41897e-16)
(0.77316 0.0146227 1.11099e-16)
(0.831475 0.040872 1.0605e-17)
(0.768925 0.0117791 6.5129e-17)
(0.821123 0.042073 6.64451e-17)
(0.760875 0.0103103 -3.57352e-18)
(0.809609 0.0423727 -3.14398e-17)
(0.745051 0.0170362 7.95713e-18)
(0.798787 0.0485002 1.16529e-16)
(0.734235 0.0181025 -2.36556e-17)
(0.774863 0.0570473 -1.92428e-17)
(0.728287 -0.0497506 -1.523e-17)
(0.761131 0.333221 -7.79166e-18)
(0.488447 -0.792356 -3.62078e-18)
(0.850336 0.0771342 1.05808e-16)
(0.799111 0.0673162 3.6986e-17)
(0.876017 0.0862304 1.30766e-16)
(0.813815 0.0321202 2.0693e-16)
(0.862745 0.0487461 3.05598e-16)
(0.807268 0.0404513 -1.77614e-16)
(0.859986 0.0375749 -1.37315e-16)
(0.79556 0.0424952 -1.04565e-16)
(0.863528 0.0412459 -2.58332e-16)
(0.787759 0.0483239 -1.76844e-16)
(0.862096 0.0347797 -1.01634e-17)
(0.78944 0.0487164 1.53016e-16)
(0.84833 0.033731 1.32265e-16)
(0.785798 0.0481742 -2.46116e-16)
(0.849232 0.0295589 -3.76377e-16)
(0.786271 0.0523554 -3.98808e-17)
(0.855722 0.0354766 1.01853e-16)
(0.783906 0.0482267 9.00223e-17)
(0.845961 0.0326091 1.88303e-16)
(0.781557 0.0548794 4.41765e-16)
(0.849503 0.0338007 5.01586e-17)
(0.7857 0.0458618 5.03374e-17)
(0.857597 0.0237855 7.62284e-17)
(0.788765 0.043461 -6.93961e-17)
(0.845282 0.0173813 6.42811e-17)
(0.781889 0.0401437 -1.55651e-16)
(0.84301 0.0265891 3.19495e-17)
(0.767034 0.0386123 5.52549e-17)
(0.825649 0.0294095 -1.01951e-16)
(0.761551 0.0312711 -2.42289e-16)
(0.827875 0.0332491 -1.12085e-16)
(0.753485 0.0357076 4.5199e-17)
(0.803547 0.0413817 1.63699e-16)
(0.74295 0.0169222 -3.36378e-17)
(0.786513 0.0368895 -2.28899e-17)
(0.736275 0.0141362 -1.01302e-16)
(0.793265 0.0478435 -4.19039e-18)
(0.72459 -0.0512165 -1.96147e-17)
(0.8148 0.291 -2.66101e-17)
(0.486289 -0.792058 -1.76375e-17)
(0.789881 0.0253336 -2.24157e-16)
(0.863821 0.075024 5.71302e-17)
(0.818174 0.0358625 -1.92664e-16)
(0.885687 0.0764939 -3.3569e-17)
(0.794483 0.0212781 -2.62766e-16)
(0.876804 0.0524624 -1.19363e-16)
(0.807972 0.0332206 -1.35868e-16)
(0.869121 0.0470707 -2.33327e-16)
(0.820123 0.0302232 -1.03175e-16)
(0.860611 0.0472955 1.38604e-16)
(0.809079 0.0313795 1.30324e-16)
(0.87161 0.0462079 3.79342e-17)
(0.800188 0.0193458 -1.61473e-16)
(0.866953 0.045171 -1.6055e-16)
(0.796597 0.0204771 3.79752e-16)
(0.863681 0.0505519 4.79151e-16)
(0.792434 0.0219829 3.63272e-17)
(0.845026 0.0586486 -1.63563e-16)
(0.799124 0.0212002 -2.21358e-16)
(0.858015 0.0528121 -3.38668e-16)
(0.79148 0.0277305 -2.30514e-16)
(0.843269 0.055402 7.34308e-17)
(0.785594 0.0237896 3.31488e-17)
(0.848687 0.0465788 -7.02357e-17)
(0.787206 0.0118255 1.83933e-17)
(0.858621 0.0383977 -1.70224e-16)
(0.782961 0.0130906 9.68323e-17)
(0.849095 0.0394254 2.86492e-16)
(0.777238 0.0289798 8.07184e-17)
(0.830084 0.040951 2.49609e-17)
(0.764126 0.00747142 1.6209e-16)
(0.819857 0.0442742 1.72753e-16)
(0.758616 0.0120961 1.02157e-17)
(0.811518 0.0485424 -1.08391e-16)
(0.745815 0.0169031 7.36685e-17)
(0.802179 0.0497645 1.7859e-16)
(0.73168 0.0257568 1.24999e-17)
(0.771619 0.0627167 -6.12803e-18)
(0.699926 -0.0265871 -1.65729e-17)
(0.801687 0.298999 -4.2845e-18)
(0.485409 -0.789905 -1.05467e-18)
(0.860707 0.0868868 -2.52298e-16)
(0.802492 0.053493 -3.21462e-16)
(0.853824 0.0748927 -1.47027e-16)
(0.818949 0.0530794 -2.73623e-16)
(0.858903 0.0541946 -3.62958e-16)
(0.811989 0.0410035 -2.26845e-16)
(0.860528 0.0426902 1.80699e-16)
(0.807552 0.0482228 3.21509e-16)
(0.865602 0.0406039 2.60235e-16)
(0.799573 0.0458333 1.35531e-17)
(0.866361 0.0362584 -2.31858e-16)
(0.78757 0.0500181 -1.89008e-16)
(0.858657 0.0323147 -2.27498e-17)
(0.791178 0.0499534 1.84781e-16)