/*--------------------------------*- C++ -*----------------------------------*\
| =========                 |                                                 |
| \\      /  F ield         | OpenFOAM: The Open Source CFD Toolbox           |
|  \\    /   O peration     | Version:  2206                                  |
|   \\  /    A nd           | Website:  www.openfoam.com                      |
|    \\/     M anipulation  |                                                 |
\*---------------------------------------------------------------------------*/
FoamFile
{
    version     2.0;
    format      ascii;
    arch        "LSB;label=32;scalar=64";
    class       volVectorField;
    location    "210";
    object      UMean;
}
// * * * * * * * * * * * * * * * * * * * * * * * * * * * * * * * * * * * * * //

dimensions      [0 1 -1 0 0 0 0];

internalField   nonuniform List<vector> 
93840
(
(0.711194 -0.84512 5.78141e-18)
(0.763504 0.429255 6.69025e-18)
(0.651233 -0.84008 5.36865e-18)
(0.535307 -0.387235 3.23497e-18)
(0.751778 0.423274 6.3992e-18)
(0.616098 -0.775866 4.59873e-18)
(1.03811 0.413489 4.08718e-17)
(0.651123 -0.109225 1.23485e-17)
(0.82653 0.390578 3.22651e-18)
(0.654856 -0.653718 7.92542e-18)
(0.86047 -0.0937628 -6.04901e-18)
(0.849317 0.0762966 6.2837e-17)
(0.773218 -0.103686 2.57266e-17)
(0.94003 0.330079 -6.20405e-17)
(0.693877 -0.523445 -8.71271e-18)
(0.874209 0.040874 -1.4178e-16)
(0.774776 -0.0318323 -2.02655e-17)
(0.595201 0.0799337 2.15826e-17)
(0.689839 -0.246761 3.69663e-17)
(0.929554 0.202402 -7.36388e-17)
(0.716643 -0.450174 4.39893e-18)
(0.797555 -0.0167412 -1.84793e-17)
(0.882252 0.0756778 -1.58969e-16)
(0.773431 -0.0181677 -4.12373e-17)
(0.89951 0.275213 1.80089e-17)
(0.517232 -0.147295 2.85868e-17)
(0.864263 0.140834 5.59761e-17)
(0.728218 -0.462804 -6.33323e-19)
(0.838338 0.0392648 6.19767e-17)
(0.779271 -0.0305521 9.80913e-18)
(0.905091 0.0855585 -1.38533e-16)
(0.806627 -0.0554443 -6.98712e-17)
(0.876716 0.187164 7.49152e-17)
(0.670288 -0.102454 -2.80578e-17)
(0.840615 0.164981 -4.6012e-17)
(0.727286 -0.461458 -1.10882e-17)
(0.795873 -0.0155098 7.4285e-17)
(0.862288 0.072974 7.61034e-17)
(0.746406 -0.016577 8.07788e-18)
(0.846581 0.0445562 -1.44293e-16)
(0.769065 -0.0518253 -1.51374e-16)
(0.930105 0.150988 -3.74172e-17)
(0.702915 -0.0163418 -3.97405e-17)
(0.82752 0.176324 4.23095e-17)
(0.713139 -0.463386 3.8887e-18)
(0.857639 0.0398777 -1.17404e-17)
(0.796851 -0.0204593 6.3893e-17)
(0.858301 0.0771456 9.57625e-17)
(0.715048 0.00200258 1.31948e-16)
(0.840796 0.0468314 9.30699e-17)
(0.781017 -0.0101367 -4.17769e-17)
(0.825269 0.0239635 8.45855e-17)
(0.746855 -0.0329811 1.06445e-17)
(0.839459 0.175051 -3.35663e-17)
(0.718502 -0.454544 -3.23527e-18)
(0.80236 -0.0143996 1.31817e-16)
(0.883287 0.056955 -3.63117e-18)
(0.759281 -0.0146332 4.37374e-17)
(0.832744 0.0417712 7.58969e-17)
(0.746121 -0.0142107 5.76545e-17)
(0.848273 0.0257924 3.97595e-17)
(0.760068 0.0185883 -6.87766e-17)
(0.819528 0.0526997 -4.36719e-17)
(0.765989 -0.022981 -4.16577e-17)
(0.827466 0.181935 2.22509e-17)
(0.699396 -0.463076 9.23201e-19)
(0.858118 0.0401298 -1.13478e-16)
(0.802438 -0.0135214 1.11339e-16)
(0.8772 0.0698096 -9.21775e-18)
(0.77293 0.0064831 2.38897e-17)
(0.865339 0.0481321 3.40227e-17)
(0.76512 0.0180238 -9.96306e-17)
(0.829296 0.0238102 -1.10948e-17)
(0.782665 0.0200217 -6.62816e-17)
(0.81221 0.0265332 6.47492e-17)
(0.774683 -0.0232464 2.4175e-18)
(0.835368 0.179064 -2.659e-17)
(0.69941 -0.44742 -1.35995e-18)
(0.78339 -0.0132364 -4.85113e-18)
(0.877926 0.0559599 -1.44416e-16)
(0.772904 -0.0101474 9.5932e-17)
(0.868218 0.0363575 2.33208e-17)
(0.793467 -0.00383985 1.00025e-17)
(0.864534 0.0284828 3.51946e-17)
(0.792558 0.015832 1.36337e-16)
(0.844094 0.0362729 1.02417e-16)
(0.770663 0.0176952 -4.36894e-17)
(0.813025 0.0422534 -3.26747e-17)
(0.78098 -0.018524 -3.28835e-17)
(0.829069 0.184339 1.38462e-17)
(0.690648 -0.457783 -1.93301e-19)
(0.843958 0.0402111 -1.41035e-16)
(0.780814 -0.0121231 -1.23605e-17)
(0.873973 0.0641001 -1.39383e-16)
(0.775168 0.00851285 7.76414e-17)
(0.854084 0.0363469 3.00797e-17)
(0.778725 0.0169069 2.67926e-17)
(0.859057 0.0287958 -4.48868e-17)
(0.793743 0.0273293 -1.02096e-16)
(0.8166 0.0248486 -4.50648e-18)
(0.792653 0.0173093 -7.55738e-17)
(0.815992 0.0307147 5.06352e-17)
(0.780668 -0.0180564 3.38216e-18)
(0.834913 0.179278 -2.28218e-17)
(0.691897 -0.441211 -1.36002e-18)
(0.783063 -0.0120619 8.99434e-18)
(0.865258 0.0553228 -1.52751e-16)
(0.764299 -0.00697435 -1.10162e-17)
(0.855199 0.0358364 -2.26126e-16)
(0.787349 0.00140865 -1.42547e-16)
(0.861655 0.0282448 -8.24447e-17)
(0.80849 0.0148282 -7.16957e-17)
(0.863576 0.035593 -2.38224e-17)
(0.802061 0.018835 7.95451e-17)
(0.842377 0.0401479 1.1867e-16)
(0.778139 0.0181855 -3.13168e-17)
(0.813714 0.0415961 -2.35638e-17)
(0.785959 -0.0146707 -3.24921e-17)
(0.82926 0.183603 9.82355e-18)
(0.683548 -0.452896 4.56868e-20)
(0.845784 0.0404093 4.50245e-17)
(0.779633 -0.010185 5.28674e-17)
(0.863813 0.0606225 -1.34372e-16)
(0.762539 0.0083347 1.64708e-17)
(0.844083 0.0334793 -8.76675e-17)
(0.782177 0.0173849 -2.26187e-17)
(0.853278 0.0292843 8.16871e-17)
(0.78774 0.0255585 5.29641e-17)
(0.846607 0.0252095 -1.01325e-17)
(0.804032 0.0248059 -9.87213e-17)
(0.820867 0.0268902 -3.9106e-18)
(0.794979 0.0166617 -7.94201e-17)
(0.817558 0.0323676 4.06428e-17)
(0.785653 -0.0146501 1.47146e-18)
(0.834271 0.178981 -2.05419e-17)
(0.685906 -0.435806 -1.28642e-18)
(0.78967 -0.0109299 1.01358e-16)
(0.865781 0.0548221 8.80485e-17)
(0.769584 -0.00467342 8.67252e-17)
(0.847017 0.0361882 -1.34566e-16)
(0.784518 0.00359531 3.8227e-17)
(0.850876 0.0285111 1.02245e-16)
(0.795166 0.0135267 1.02874e-16)
(0.85187 0.0347642 -4.61874e-18)
(0.809551 0.0170333 -5.25832e-17)
(0.860541 0.0379268 -3.51701e-17)
(0.806409 0.0191155 5.67919e-17)
(0.844108 0.0428953 1.21484e-16)
(0.783504 0.0188362 -2.17291e-17)
(0.813827 0.0414888 -1.82776e-17)
(0.788592 -0.0115466 -3.26332e-17)
(0.828625 0.182747 5.84834e-18)
(0.679109 -0.448159 5.51597e-19)
(0.851212 0.0400382 -3.54718e-17)
(0.785531 -0.00810289 9.16903e-17)
(0.864904 0.0579004 8.90908e-17)
(0.770731 0.00873315 1.67611e-16)
(0.84811 0.0337785 5.36061e-17)
(0.786072 0.018287 -7.66569e-17)
(0.845964 0.029176 -2.31793e-16)
(0.787764 0.0242073 -1.30444e-16)
(0.847643 0.0284903 3.92933e-17)
(0.793481 0.027137 5.78157e-17)
(0.845055 0.0249953 8.09198e-18)
(0.809735 0.024546 -8.95213e-17)
(0.823005 0.0286794 -4.1327e-19)
(0.79596 0.0171333 -8.14225e-17)
(0.818432 0.0338496 3.43617e-17)
(0.789254 -0.0121762 1.27432e-18)
(0.833046 0.178775 -1.87855e-17)
(0.681347 -0.430975 -2.16769e-18)
(0.797955 -0.00994754 2.76472e-17)
(0.868804 0.0540392 -4.07971e-17)
(0.778118 -0.002481 6.50982e-17)
(0.848493 0.0369935 1.13307e-16)
(0.795044 0.00586333 1.65817e-16)
(0.853091 0.0295167 -2.60807e-17)
(0.800507 0.0136222 2.54912e-17)
(0.852141 0.0352129 6.30473e-17)
(0.799091 0.0157046 1.31016e-16)
(0.84807 0.0358855 2.53434e-17)
(0.809394 0.0172752 -4.46763e-17)
(0.859218 0.0389657 -4.40869e-17)
(0.809698 0.0191616 3.46502e-17)
(0.844617 0.0440373 1.24523e-16)
(0.787861 0.0198957 -1.67412e-17)
(0.81326 0.0418764 -1.73418e-17)
(0.791309 -0.0095315 -3.1766e-17)
(0.827904 0.181953 3.1977e-18)
(0.675538 -0.443628 1.87971e-19)
(0.853696 0.0397443 -8.00391e-17)
(0.792442 -0.00616216 1.20541e-17)
(0.865598 0.0550161 -5.19193e-17)
(0.777078 0.00915473 1.99742e-17)
(0.84915 0.0335339 -1.02235e-17)
(0.78941 0.0190794 -8.75499e-17)
(0.848208 0.0294619 4.90776e-17)
(0.795218 0.0243424 -1.77815e-17)
(0.845906 0.0293782 -2.12271e-16)
(0.790728 0.0260783 -1.69545e-16)
(0.846003 0.0282993 1.06697e-17)
(0.796845 0.0284645 5.69201e-17)
(0.843348 0.0265364 1.78312e-17)
(0.813906 0.0244354 -8.10316e-17)
(0.825405 0.0302916 3.26607e-18)
(0.797466 0.0169308 -8.23624e-17)
(0.81782 0.0352316 3.1107e-17)
(0.792219 -0.0105796 -1.1156e-19)
(0.831728 0.178519 -1.75307e-17)
(0.677148 -0.426488 -3.0115e-18)
(0.805282 -0.00926519 -1.18272e-16)
(0.8713 0.0532872 -1.26203e-16)
(0.786389 3.42021e-05 -1.90212e-17)
(0.850962 0.0373871 -7.00702e-17)
(0.800499 0.00799375 -6.14842e-17)
(0.850787 0.0301469 1.15198e-16)
(0.80414 0.014164 2.83451e-16)
(0.855021 0.0347352 1.63995e-16)
(0.803524 0.0149972 3.90135e-17)
(0.852408 0.0361362 4.22888e-17)
(0.801358 0.0163857 1.29538e-16)
(0.846052 0.0365986 4.20766e-17)
(0.809166 0.0178227 -3.54403e-17)
(0.857793 0.040267 -4.69661e-17)
(0.81225 0.0197368 1.76992e-17)
(0.845057 0.0446897 1.26422e-16)
(0.791611 0.020925 -1.23886e-17)
(0.812403 0.042211 -1.30476e-17)
(0.793791 -0.00823746 -2.90451e-17)
(0.826965 0.181331 2.70195e-19)
(0.673002 -0.439056 1.03397e-18)
(0.858436 0.0401166 3.02335e-16)
(0.802637 -0.00419482 -4.06071e-17)
(0.867668 0.0526557 -1.04941e-16)
(0.785759 0.00981677 -5.197e-17)
(0.853328 0.0336399 -1.08543e-16)
(0.798154 0.0200153 -5.51756e-17)
(0.85372 0.0293694 -8.36131e-17)
(0.798378 0.0246855 -1.60228e-16)
(0.84817 0.0297563 3.54941e-17)
(0.797777 0.0267434 2.0171e-17)
(0.845577 0.0296612 -1.84796e-16)
(0.793173 0.0271396 -1.83716e-16)
(0.844348 0.0283339 -9.38305e-18)
(0.800147 0.0291618 5.26542e-17)
(0.842481 0.0276644 2.28053e-17)
(0.815524 0.0242852 -7.72894e-17)
(0.826427 0.0324047 5.46212e-18)
(0.7991 0.017116 -8.28151e-17)
(0.817604 0.0366514 2.53828e-17)
(0.795051 -0.00987971 -7.50165e-19)
(0.830242 0.178129 -1.76653e-17)
(0.673031 -0.422195 -2.62814e-18)
(0.810863 -0.00840736 -3.21486e-16)
(0.877257 0.0524813 2.29175e-16)
(0.79829 0.00220948 -1.52801e-17)
(0.856984 0.0378864 -1.32443e-16)
(0.809441 0.00961766 3.38614e-17)
(0.856133 0.0307502 -7.56579e-20)
(0.813429 0.0148798 -7.38168e-17)
(0.856577 0.0341944 -1.07318e-16)
(0.806309 0.015267 1.93584e-16)
(0.856366 0.0354201 1.88914e-16)
(0.80503 0.0159832 5.66976e-17)
(0.851324 0.0368704 3.25561e-17)
(0.802936 0.0175387 1.21665e-16)
(0.845109 0.0371039 5.2628e-17)
(0.808597 0.0178985 -2.59112e-17)
(0.857067 0.0411808 -4.5982e-17)
(0.814247 0.0202171 6.34554e-18)
(0.844986 0.0448897 1.26823e-16)
(0.793977 0.0217839 -8.71411e-18)
(0.811634 0.0431453 -1.15345e-17)
(0.796207 -0.00771127 -2.99512e-17)
(0.825436 0.180933 -1.13181e-18)
(0.671631 -0.434472 4.5116e-19)
(0.863872 0.0404365 6.07619e-17)
(0.812072 -0.00230096 -3.75677e-16)
(0.872334 0.0506652 1.89945e-16)
(0.800469 0.0107412 8.08115e-17)
(0.861224 0.0338974 1.74501e-17)
(0.809039 0.0206912 7.02982e-17)
(0.85819 0.0292248 -9.21004e-17)
(0.805924 0.0252076 -5.83016e-17)
(0.855041 0.0299326 -3.95029e-17)
(0.801168 0.027394 -1.70594e-16)
(0.848205 0.0299586 9.86456e-18)
(0.801244 0.0280158 4.06339e-17)
(0.843717 0.0294961 -1.63423e-16)
(0.795878 0.0280971 -1.85318e-16)
(0.842733 0.0287874 -2.4239e-17)
(0.802316 0.0294981 4.71427e-17)
(0.840876 0.0287142 2.68803e-17)
(0.817535 0.0243237 -7.41816e-17)
(0.827808 0.0341743 8.91699e-18)
(0.800431 0.0169625 -8.22147e-17)
(0.816715 0.038229 2.24182e-17)
(0.797541 -0.00983316 -9.06336e-19)
(0.828415 0.177933 -1.64811e-17)
(0.66937 -0.417836 1.86015e-19)
(0.814891 -0.00730015 2.03172e-17)
(0.881675 0.0517514 1.76203e-16)
(0.809148 0.00394631 -3.14233e-16)
(0.86358 0.0379761 1.4743e-16)
(0.81945 0.0108712 8.37408e-17)
(0.863119 0.03128 -8.13881e-17)
(0.822838 0.0155822 -1.4711e-16)
(0.862439 0.0340572 -4.442e-17)
(0.817367 0.0157386 -6.66532e-17)
(0.858787 0.0338233 -1.51795e-16)
(0.808307 0.0166044 1.31853e-16)
(0.852926 0.0343882 1.93684e-16)
(0.807531 0.01707 6.76779e-17)
(0.850969 0.0365116 2.52375e-17)
(0.803979 0.0186513 1.0763e-16)
(0.843572 0.0364015 5.84427e-17)
(0.8085 0.0184448 -1.5665e-17)
(0.855048 0.0416569 -4.28625e-17)
(0.815584 0.0203788 -4.64784e-18)
(0.844153 0.0450081 1.23838e-16)
(0.796774 0.0221891 -5.88022e-18)
(0.811056 0.0443131 -9.25876e-18)
(0.798328 -0.00794963 -3.09014e-17)
(0.82488 0.18031 -3.1782e-18)
(0.674949 -0.422632 -2.47916e-18)
(0.861881 0.0407256 9.59783e-17)
(0.814718 -0.000461836 -3.10873e-18)
(0.873483 0.0491039 1.80567e-16)
(0.813756 0.011967 -4.01942e-16)
(0.866643 0.0338272 -1.64338e-16)
(0.818408 0.0214 -9.66403e-17)
(0.864777 0.0291388 -4.6084e-17)
(0.818036 0.0259813 1.01767e-16)
(0.8611 0.0306188 -4.0417e-17)
(0.809289 0.027384 -6.09675e-17)
(0.854353 0.0291642 -2.46615e-17)
(0.806781 0.029046 -1.51562e-16)
(0.846001 0.0301382 -1.7228e-18)
(0.802729 0.0289676 5.41759e-17)
(0.843399 0.030115 -1.43926e-16)
(0.798277 0.0282153 -1.76646e-16)
(0.842592 0.0303299 -3.30427e-17)
(0.804727 0.0295004 4.00873e-17)
(0.840676 0.0305447 2.6582e-17)
(0.819177 0.0242923 -6.78338e-17)
(0.829161 0.0360249 1.37466e-17)
(0.801441 0.0172612 -8.2349e-17)
(0.816344 0.0399458 1.95705e-17)
(0.799824 -0.0104353 -2.72792e-18)
(0.82863 0.177024 -1.62288e-17)
(0.67758 -0.421395 1.95875e-19)
(0.810866 -0.00635759 2.43372e-16)
(0.875708 0.0506344 1.55452e-16)
(0.809721 0.00574281 -1.13293e-17)
(0.864404 0.0373623 3.36721e-16)
(0.822241 0.0117417 -7.6838e-17)
(0.86289 0.0313578 -2.16002e-18)
(0.823583 0.016045 1.81116e-16)
(0.862601 0.0329469 2.74063e-16)
(0.824018 0.0160024 -3.61011e-17)
(0.86349 0.0339019 -3.53518e-17)
(0.819763 0.0173058 -5.35909e-17)
(0.856598 0.0338056 -1.71404e-16)
(0.809097 0.0175595 9.02533e-17)
(0.853114 0.0340454 1.89527e-16)
(0.808229 0.0190639 7.81106e-17)
(0.848988 0.036078 1.70337e-17)
(0.805038 0.0200874 9.24508e-17)
(0.841974 0.0367411 6.19092e-17)
(0.808403 0.0187472 -5.65313e-18)
(0.85224 0.0410845 -3.64613e-17)
(0.816668 0.0206174 -1.74299e-17)
(0.843062 0.0453335 1.20109e-16)
(0.79868 0.0224203 -2.88589e-18)
(0.811251 0.0455974 -7.45856e-18)
(0.800797 -0.00882022 -2.73343e-17)
(0.819159 0.179735 -4.77147e-18)
(0.672738 -0.422145 -2.20451e-18)
(0.854365 0.0408509 -5.37724e-16)
(0.809497 0.0014094 8.56893e-17)
(0.868255 0.0475311 1.48749e-16)
(0.816165 0.0133454 -2.34224e-17)
(0.861444 0.0332095 3.57373e-16)
(0.817643 0.0218197 3.54112e-16)
(0.859453 0.0285791 3.12252e-16)
(0.817293 0.0265921 7.54853e-17)
(0.863648 0.0304788 -4.0175e-17)
(0.819685 0.0280565 9.99856e-17)
(0.861863 0.0306596 -1.60532e-17)
(0.812023 0.0286942 -6.04458e-17)
(0.853612 0.029498 -1.82907e-17)
(0.808185 0.0296443 -1.44746e-16)
(0.845914 0.0302176 -7.9542e-18)
(0.806042 0.0285294 6.36235e-17)
(0.843129 0.0305418 -1.27351e-16)
(0.799615 0.0283585 -1.72588e-16)
(0.841287 0.0308062 -3.91356e-17)
(0.806658 0.0290726 3.29704e-17)
(0.841933 0.0325868 2.45817e-17)
(0.820474 0.0244179 -6.54974e-17)
(0.831311 0.0375237 1.94018e-17)
(0.802045 0.0176302 -8.07662e-17)
(0.816112 0.0422172 1.75065e-17)
(0.803638 -0.0113713 -3.77297e-18)
(0.820635 0.180205 -1.41073e-17)
(0.670804 -0.416882 -1.30852e-19)
(0.803737 -0.00538997 3.52276e-16)
(0.866742 0.0496236 -5.01419e-16)
(0.806984 0.00711264 -2.53635e-17)
(0.857742 0.0367949 1.37818e-16)
(0.81794 0.0123834 -1.56917e-16)
(0.857085 0.0312866 -2.11094e-16)
(0.819717 0.0164721 -3.17008e-16)
(0.858677 0.0323159 -4.09774e-16)
(0.823793 0.01608 -9.76353e-17)
(0.862531 0.03246 2.58811e-16)
(0.824875 0.0176033 1.03939e-17)
(0.861852 0.0335469 -2.80797e-17)
(0.820697 0.0180923 -4.16172e-17)
(0.8576 0.0338127 -1.77671e-16)
(0.810556 0.0195923 5.18596e-17)
(0.850969 0.034062 1.8308e-16)
(0.808477 0.0198671 8.66512e-17)
(0.848523 0.0354825 9.56962e-18)
(0.805881 0.0208393 8.15805e-17)
(0.841649 0.0376748 6.03721e-17)
(0.80844 0.0193649 1.47177e-18)
(0.850716 0.0415904 -3.03016e-17)
(0.817222 0.0209265 -2.49625e-17)
(0.843613 0.0455069 1.16546e-16)
(0.799855 0.0225301 1.38821e-18)
(0.811658 0.0470461 -5.48565e-18)
(0.803863 -0.0115745 -2.63505e-17)
(0.818819 0.181721 -7.91911e-18)
(0.668375 -0.417452 -1.93337e-18)
(0.844903 0.0407945 2.38259e-17)
(0.801096 0.00277398 5.28255e-16)
(0.859115 0.046257 -3.58786e-16)
(0.809774 0.0149308 -1.53305e-16)
(0.8519 0.0325406 3.81943e-17)
(0.814067 0.0223666 1.25696e-16)
(0.852783 0.0282164 9.38043e-17)
(0.815147 0.0270126 1.58378e-16)
(0.857663 0.0304395 3.50109e-16)
(0.81727 0.0281994 1.60819e-16)
(0.862433 0.0300715 -3.03659e-17)
(0.821761 0.0285345 9.45396e-17)
(0.861364 0.0304948 -2.15694e-18)
(0.813896 0.029457 -5.96851e-17)
(0.85352 0.0295703 -1.56325e-17)
(0.810456 0.02893 -1.31961e-16)
(0.845559 0.0303175 -1.45694e-17)
(0.806939 0.0289239 6.88787e-17)
(0.84331 0.031207 -1.0992e-16)
(0.800715 0.0285505 -1.65048e-16)
(0.840215 0.031326 -4.19901e-17)
(0.807652 0.0284676 2.82629e-17)
(0.84185 0.0335941 2.50881e-17)
(0.820388 0.024518 -6.38706e-17)
(0.833272 0.0389096 2.40483e-17)
(0.802245 0.0178 -8.21217e-17)
(0.816261 0.045029 1.45585e-17)
(0.80352 -0.0136454 -3.76967e-18)
(0.820028 0.180733 -1.44517e-17)
(0.668423 -0.41238 -3.2797e-19)
(0.796447 -0.00464502 -2.77231e-16)
(0.853126 0.0489025 -1.93951e-16)
(0.797552 0.00791396 4.87572e-16)
(0.846949 0.0357608 -3.14453e-16)
(0.812621 0.0129872 -4.31883e-16)
(0.850551 0.0313485 -4.30718e-16)
(0.815082 0.0170632 -4.17471e-16)
(0.852318 0.0316055 -3.04806e-16)
(0.818755 0.0158032 -3.1692e-16)
(0.857182 0.0316697 -4.6223e-16)
(0.82318 0.0176126 -1.94443e-16)
(0.86087 0.0324357 2.30235e-16)
(0.825642 0.0185742 3.5015e-17)
(0.862159 0.0330846 -2.00989e-17)
(0.820962 0.0191486 -3.22389e-17)
(0.857209 0.0339278 -1.77992e-16)
(0.811182 0.0201364 2.65746e-17)
(0.851097 0.0340311 1.75753e-16)
(0.80913 0.0206352 9.42542e-17)
(0.847063 0.0348904 -2.46572e-18)
(0.806726 0.0212299 5.96001e-17)
(0.8413 0.0382059 5.62928e-17)
(0.808823 0.0197298 5.84322e-18)
(0.850463 0.0419638 -2.56463e-17)
(0.817482 0.0214619 -3.25356e-17)
(0.843196 0.0455882 1.09142e-16)
(0.800935 0.0226001 2.61885e-19)
(0.812492 0.0494052 -3.9077e-18)
(0.804223 -0.0142265 -2.60947e-17)
(0.818805 0.182045 -6.79899e-18)
(0.666961 -0.413223 -1.75679e-18)
(0.839825 0.0406135 3.87917e-16)
(0.794718 0.00392367 -1.72246e-16)
(0.847602 0.0452644 -2.69552e-16)
(0.800531 0.0163938 6.29102e-16)
(0.84222 0.0319701 3.02027e-16)
(0.808186 0.0230594 1.2472e-16)
(0.842071 0.027951 1.67286e-16)
(0.807533 0.0274404 3.18527e-16)
(0.848961 0.0302089 2.30943e-16)
(0.813916 0.0281466 1.41265e-16)
(0.856776 0.0301216 3.39715e-16)
(0.81775 0.0290528 1.89907e-16)
(0.861208 0.0304558 -1.73013e-17)
(0.822265 0.0289898 9.28376e-17)
(0.861153 0.0303984 6.92006e-18)
(0.816193 0.029718 -5.69351e-17)
(0.853161 0.0298366 -1.5388e-17)
(0.811523 0.0292671 -1.26841e-16)
(0.845366 0.0304335 -1.85226e-17)
(0.808076 0.0288172 7.72524e-17)
(0.844905 0.0319173 -8.86033e-17)
(0.802502 0.0285482 -1.47814e-16)
(0.83909 0.0319712 -4.43029e-17)
(0.807791 0.0283242 2.46856e-17)
(0.8425 0.0341991 2.48165e-17)
(0.821086 0.0245563 -6.09707e-17)
(0.835224 0.040384 3.1897e-17)
(0.802644 0.0179664 -7.60844e-17)
(0.81685 0.0477998 1.48741e-17)
(0.8032 -0.0163658 -3.99742e-18)
(0.817988 0.182498 -1.65668e-17)
(0.66753 -0.408175 -4.95367e-19)
(0.793249 -0.00393056 -2.95341e-16)
(0.84407 0.0473739 4.11067e-16)
(0.791677 0.00900032 -1.43936e-17)
(0.836111 0.0359028 -4.35387e-16)
(0.804938 0.0136963 4.24676e-16)
(0.840463 0.0313839 3.83431e-16)
(0.805744 0.0175872 4.30627e-16)
(0.84122 0.0308995 1.33876e-16)
(0.81152 0.0158851 -2.57229e-16)
(0.850353 0.0315496 -2.80282e-16)
(0.818017 0.0172429 -2.83461e-16)
(0.855967 0.0317383 -4.44121e-16)
(0.823299 0.018344 -2.36624e-16)
(0.860336 0.0324586 2.02358e-16)
(0.825769 0.0194166 5.03433e-17)
(0.862038 0.032703 -1.4065e-17)
(0.82188 0.0197653 -2.44036e-17)
(0.856743 0.0337512 -1.74487e-16)
(0.812208 0.0208225 4.20222e-18)
(0.850418 0.0339227 1.66206e-16)
(0.80998 0.0218155 9.73275e-17)
(0.845323 0.0348028 -2.99738e-18)
(0.807399 0.0215294 4.00134e-17)
(0.840891 0.0386185 5.20998e-17)
(0.808599 0.0202511 9.84502e-18)
(0.849314 0.0423527 -2.23268e-17)
(0.818305 0.0218972 -3.92543e-17)
(0.84345 0.0458497 1.06071e-16)
(0.801811 0.0223625 -8.98095e-19)
(0.814414 0.0518187 -4.66873e-18)
(0.804308 -0.0173984 -2.49795e-17)
(0.815135 0.185296 -8.38233e-18)
(0.666921 -0.408949 -6.86608e-18)
(0.835163 0.0402417 1.46979e-17)
(0.789309 0.00592584 -4.018e-16)
(0.839025 0.0439786 3.42903e-16)
(0.792483 0.0173 8.94425e-17)
(0.833777 0.0317764 -7.81481e-16)
(0.801264 0.023809 -5.90611e-16)
(0.831976 0.0279246 -4.25278e-16)
(0.802071 0.0280182 -4.62153e-16)
(0.83943 0.030152 -2.06948e-16)
(0.805838 0.0280936 2.08036e-16)
(0.847776 0.0298171 2.33648e-16)
(0.813543 0.0286308 1.2374e-16)
(0.856238 0.0294146 2.95732e-16)
(0.818086 0.0291786 1.92222e-16)
(0.860025 0.0304301 -3.50096e-18)
(0.823536 0.0296241 9.20151e-17)
(0.859986 0.0305712 1.33669e-17)
(0.818035 0.0300464 -5.552e-17)
(0.85296 0.0300193 -1.84073e-17)
(0.812806 0.0294862 -1.20048e-16)
(0.844921 0.0307502 -1.96922e-17)
(0.809133 0.0289084 8.00403e-17)
(0.844703 0.0322478 -7.63965e-17)
(0.80423 0.0285345 -1.35733e-16)
(0.838974 0.0326023 -4.12635e-17)
(0.808206 0.0281284 2.23906e-17)
(0.842506 0.0350807 2.53875e-17)
(0.820881 0.0244973 -6.2665e-17)
(0.836416 0.0414882 3.51654e-17)
(0.802484 0.0181377 -7.54054e-17)
(0.818292 0.0505279 1.28006e-17)
(0.804311 -0.0202462 -1.72208e-18)
(0.813755 0.18493 -1.64106e-17)
(0.667304 -0.403949 2.82836e-18)
(0.789731 -0.00325473 -5.14237e-17)
(0.837177 0.0448943 8.45738e-17)
(0.78799 0.00995849 -5.00513e-16)
(0.826408 0.0360216 2.6783e-16)
(0.798292 0.0146106 6.395e-16)
(0.83235 0.031423 3.60566e-16)
(0.799578 0.0181951 2.53973e-16)
(0.834106 0.0304725 3.29241e-16)
(0.803794 0.0162448 5.62208e-16)
(0.839372 0.0313009 3.2779e-16)
(0.810144 0.01708 -1.62057e-16)
(0.848966 0.0311686 -2.62242e-16)
(0.817875 0.018901 -2.5147e-16)
(0.854485 0.0315962 -4.30225e-16)
(0.822991 0.0197578 -2.37552e-16)
(0.859703 0.0321471 1.82777e-16)
(0.826565 0.0199885 6.32084e-17)
(0.861356 0.032415 -8.37466e-18)
(0.822859 0.0206511 -1.81884e-17)
(0.855883 0.0335714 -1.69389e-16)
(0.813433 0.0215848 -1.44926e-17)
(0.84951 0.0339216 1.57616e-16)
(0.810667 0.0228875 1.01392e-16)
(0.84466 0.0348566 -6.05147e-18)
(0.808237 0.0217476 2.78355e-17)
(0.839933 0.0387197 4.40015e-17)
(0.808715 0.0210284 1.23444e-17)
(0.848718 0.0424786 -1.79053e-17)
(0.818844 0.0224232 -4.19546e-17)
(0.843666 0.046366 1.03923e-16)
(0.801793 0.0225495 7.49101e-19)
(0.815821 0.0548018 -2.6118e-18)
(0.80308 -0.0208304 -2.91567e-17)
(0.832625 0.16774 -9.37126e-18)
(0.666136 -0.405725 -4.57167e-18)
(0.831279 0.0398567 8.8165e-17)
(0.785478 0.00838523 -1.6179e-17)
(0.833984 0.0426738 1.8687e-16)
(0.787899 0.0183386 -6.00623e-16)
(0.828504 0.031889 -1.44868e-16)
(0.797032 0.0244829 2.51334e-16)
(0.826224 0.0281094 1.5595e-16)
(0.799256 0.0286864 2.18286e-17)
(0.830968 0.0296468 -1.68764e-16)
(0.799808 0.0283157 -4.47834e-16)
(0.838554 0.0300307 -2.98131e-16)
(0.805477 0.0285937 1.47779e-16)
(0.846229 0.029525 2.30542e-16)
(0.814134 0.0287613 9.86719e-17)
(0.854025 0.0292981 2.7312e-16)
(0.820222 0.0289252 1.65238e-16)
(0.858284 0.0305576 3.26553e-18)
(0.824492 0.0299092 9.03373e-17)
(0.859395 0.0306187 1.8538e-17)
(0.819734 0.0302042 -5.2225e-17)
(0.852455 0.0302438 -2.14324e-17)
(0.813706 0.0296385 -1.15493e-16)
(0.844772 0.0310032 -2.00938e-17)
(0.810284 0.0285884 8.53258e-17)
(0.843983 0.0327253 -6.4776e-17)
(0.80547 0.0287199 -1.28051e-16)
(0.839021 0.0337056 -3.58983e-17)
(0.80865 0.0277861 2.04692e-17)
(0.842642 0.0358758 2.54083e-17)
(0.821203 0.0244647 -6.15776e-17)
(0.837562 0.0423827 3.83219e-17)
(0.801862 0.0186634 -7.27671e-17)
(0.820443 0.0536256 9.60134e-18)
(0.786053 -0.0104852 -5.17912e-19)
(0.832136 0.169243 -1.64415e-17)
(0.666593 -0.401353 6.51985e-18)
(0.78954 -0.00272332 2.39551e-17)
(0.832512 0.0428601 1.11275e-16)
(0.785796 0.0110397 -5.85258e-18)
(0.82174 0.0362312 3.39281e-16)
(0.796592 0.015537 -4.35527e-16)
(0.829063 0.0317126 -4.16393e-16)
(0.799624 0.0188812 -2.36848e-16)
(0.832541 0.0303835 -1.75614e-16)
(0.800798 0.0171007 -9.78596e-17)
(0.833741 0.0313305 1.41144e-16)
(0.803438 0.017035 5.2132e-16)
(0.837904 0.03113 3.9635e-16)
(0.80945 0.0184631 -9.52797e-17)
(0.847342 0.0309109 -2.42384e-16)
(0.817979 0.0201616 -2.17469e-16)
(0.853537 0.0316656 -4.02776e-16)
(0.822493 0.0203704 -2.44949e-16)
(0.858782 0.0320389 1.62888e-16)
(0.826997 0.0205759 7.15192e-17)
(0.860594 0.0323462 -2.40572e-18)
(0.823695 0.021349 -1.39618e-17)
(0.855329 0.033589 -1.56897e-16)
(0.81436 0.0222056 -3.21513e-17)
(0.848235 0.0340208 1.39005e-16)
(0.811456 0.02353 1.02826e-16)
(0.844044 0.0349353 -7.55038e-18)
(0.80879 0.02207 1.74317e-17)
(0.839798 0.0384304 3.98686e-17)
(0.808589 0.0214735 1.47251e-17)
(0.847729 0.0426636 -1.63202e-17)
(0.819166 0.02271 -4.99111e-17)
(0.84398 0.0466552 1.00677e-16)
(0.801435 0.0223563 5.33729e-19)
(0.824061 0.0538564 1.37184e-19)
(0.789669 -0.00904898 -2.4833e-17)
(0.825242 0.17287 -1.03856e-17)
(0.665869 -0.402397 -3.08434e-18)
(0.832618 0.0394942 1.55527e-16)
(0.791083 0.00985212 1.19244e-17)
(0.834542 0.0420217 6.32736e-17)
(0.787813 0.0193917 -5.46947e-17)
(0.827733 0.0321397 5.77051e-16)
(0.798037 0.025248 2.984e-16)
(0.828134 0.0287342 -9.36977e-17)
(0.804255 0.0294815 -4.65626e-17)
(0.83038 0.0292135 1.3749e-16)
(0.798474 0.0290616 1.0693e-16)
(0.83088 0.0298766 -7.42501e-17)
(0.80005 0.0287487 -3.98251e-16)
(0.836996 0.0295997 -3.35279e-16)
(0.806061 0.0287645 9.91253e-17)
(0.845003 0.0294666 2.20709e-16)
(0.815002 0.0288991 7.81488e-17)
(0.852507 0.0291058 2.35041e-16)
(0.820799 0.0293549 1.39726e-16)
(0.857134 0.0307949 1.10883e-17)
(0.825404 0.0301211 8.97164e-17)
(0.858881 0.0306174 2.17649e-17)
(0.820666 0.0301663 -4.80012e-17)
(0.852944 0.0302118 -3.05576e-17)
(0.814472 0.0295487 -1.08956e-16)
(0.845378 0.0310601 -1.23215e-17)
(0.811196 0.0285595 9.17873e-17)
(0.843223 0.0331005 -5.62496e-17)
(0.806254 0.0289143 -1.21597e-16)
(0.838325 0.0342133 -3.95742e-17)
(0.808986 0.0277327 1.55887e-17)
(0.84251 0.0365859 2.81135e-17)
(0.821256 0.0245693 -5.80946e-17)
(0.838631 0.0429973 4.10655e-17)
(0.802265 0.0187734 -7.12213e-17)
(0.824023 0.0497249 6.77404e-18)
(0.792996 -0.012386 -4.85842e-18)
(0.825578 0.17479 -1.70136e-17)
(0.666404 -0.398022 3.80362e-19)
(0.797307 -0.00196546 -1.46714e-16)
(0.839302 0.0423029 1.09675e-16)
(0.796983 0.012284 5.3892e-17)
(0.827994 0.0366475 1.28386e-16)
(0.803915 0.016503 -6.66037e-17)
(0.834768 0.0323271 1.66536e-16)
(0.810443 0.0197089 2.24331e-16)
(0.84166 0.0306739 1.30044e-16)
(0.808497 0.0182825 2.88806e-17)
(0.835273 0.0312251 -1.35474e-16)
(0.802108 0.0188858 -1.36478e-16)
(0.831965 0.0307798 6.02918e-17)
(0.803843 0.0182809 4.53853e-16)
(0.836916 0.0309174 4.18796e-16)
(0.809488 0.0194815 -4.53791e-17)
(0.845263 0.0306722 -2.21194e-16)
(0.818664 0.0205394 -1.93839e-16)
(0.852684 0.0312239 -3.7376e-16)
(0.823174 0.0205123 -2.39988e-16)
(0.857976 0.0322642 1.39419e-16)
(0.827071 0.0210141 7.9224e-17)
(0.860303 0.0325012 2.3241e-18)
(0.823694 0.0217555 -9.02681e-18)
(0.854923 0.0337227 -1.53694e-16)
(0.815159 0.0229309 -4.95984e-17)
(0.847315 0.034007 1.28638e-16)
(0.812218 0.0240445 1.05766e-16)
(0.844044 0.0350282 -8.11867e-18)
(0.809078 0.022974 1.88866e-18)
(0.839525 0.0386861 3.36385e-17)
(0.808842 0.0217769 1.61687e-17)
(0.847223 0.0428755 -1.21762e-17)
(0.819313 0.0230897 -5.43519e-17)
(0.844665 0.0469348 9.74799e-17)
(0.801216 0.0232885 -3.62042e-18)
(0.821362 0.0552194 -3.80873e-18)
(0.795919 -0.0146069 -1.92566e-17)
(0.818778 0.176888 -1.13774e-17)
(0.665738 -0.39875 2.14317e-18)
(0.839406 0.0391224 2.76587e-17)
(0.802211 0.0114143 -1.56689e-16)
(0.83891 0.0414488 8.88813e-17)
(0.795584 0.0206567 1.2181e-16)
(0.836162 0.0325619 1.03334e-16)
(0.808631 0.026197 -3.49955e-16)
(0.840935 0.0295492 -3.58584e-16)
(0.817875 0.0304259 -1.83899e-16)
(0.838948 0.0294933 -2.31612e-16)
(0.806643 0.0293123 -1.5532e-16)
(0.830785 0.0284166 8.91566e-17)
(0.801201 0.0286643 1.12346e-16)
(0.82974 0.0294173 -2.34522e-17)
(0.79987 0.0288883 -3.48454e-16)
(0.835591 0.0295147 -3.43805e-16)
(0.807154 0.0286003 6.19453e-17)
(0.843742 0.0295346 2.10947e-16)
(0.815137 0.0290239 6.85606e-17)
(0.851036 0.0293127 2.10286e-16)
(0.820943 0.0295888 1.2927e-16)
(0.857548 0.0305112 2.26801e-17)
(0.825897 0.0302645 8.8785e-17)
(0.858551 0.0305369 2.61733e-17)
(0.82169 0.0304747 -4.34825e-17)
(0.85263 0.0302849 -3.12909e-17)
(0.815361 0.0295021 -1.05789e-16)
(0.844817 0.0314136 -1.18806e-17)
(0.811891 0.0284746 9.28667e-17)
(0.842944 0.0334874 -4.76058e-17)
(0.807307 0.0284219 -1.08015e-16)
(0.837944 0.034667 -3.65758e-17)
(0.808872 0.0277418 1.66809e-17)
(0.842777 0.0374729 2.77282e-17)
(0.820839 0.0248102 -5.76061e-17)
(0.839882 0.0435336 4.07964e-17)
(0.802027 0.0196262 -6.02244e-17)
(0.821897 0.0521644 1.04728e-17)
(0.794589 -0.0159816 -8.1048e-18)
(0.841643 0.159715 -2.18631e-17)
(0.665809 -0.395698 -9.16703e-18)
(0.808876 -0.000982774 -2.47984e-16)
(0.849411 0.0412682 -4.61807e-17)
(0.80826 0.0139285 -2.20545e-16)
(0.835899 0.0371942 -2.1997e-17)
(0.815714 0.0173813 -2.60618e-16)
(0.845932 0.032956 -1.113e-16)
(0.824995 0.0204555 -1.33366e-16)
(0.85164 0.0309594 -1.17406e-16)
(0.82056 0.0192592 1.34014e-17)
(0.844828 0.0324447 1.21005e-16)
(0.811812 0.020197 7.43794e-17)
(0.835184 0.0316472 -1.02996e-16)
(0.802312 0.019678 -1.41905e-16)
(0.832088 0.0308272 1.19428e-17)
(0.803601 0.01992 3.74236e-16)
(0.835634 0.0307214 4.18659e-16)
(0.809088 0.0200284 -9.76288e-18)
(0.843802 0.0306302 -2.03146e-16)
(0.818444 0.0214103 -1.70874e-16)
(0.851921 0.0310061 -3.39921e-16)
(0.823391 0.021315 -2.31544e-16)
(0.856369 0.032276 1.23842e-16)
(0.828005 0.0215077 8.64455e-17)
(0.859717 0.0324727 6.18752e-18)
(0.824529 0.0221524 -7.22713e-18)
(0.854347 0.033748 -1.48599e-16)
(0.816104 0.0234478 -6.25551e-17)
(0.846821 0.034097 1.18042e-16)
(0.812602 0.024389 1.1013e-16)
(0.843895 0.0351582 -7.40354e-18)
(0.809132 0.0233764 -6.64616e-18)
(0.839711 0.0388575 2.95753e-17)
(0.808705 0.0222021 1.73057e-17)
(0.846983 0.0427549 -7.80012e-18)
(0.819115 0.0234888 -5.77206e-17)
(0.845223 0.0471616 1.01937e-16)
(0.800639 0.0239351 -2.83021e-18)
(0.821327 0.056991 -2.54508e-18)
(0.78091 -0.00491841 -1.95228e-17)
(0.835236 0.163671 -8.54943e-18)
(0.665086 -0.396419 4.30798e-18)
(0.846937 0.0384798 5.47913e-17)
(0.815014 0.0131243 -2.61946e-16)
(0.846864 0.0410964 -8.34506e-17)
(0.810102 0.0219212 -3.153e-16)
(0.849082 0.0330325 -2.4883e-16)
(0.821749 0.0269859 -1.90767e-16)
(0.852249 0.0300236 1.86786e-16)
(0.825741 0.030945 3.72923e-16)
(0.846983 0.02924 2.04632e-16)
(0.820243 0.030047 -3.56215e-17)
(0.841171 0.0289408 -2.06514e-16)
(0.80881 0.0291443 -1.87519e-16)
(0.830808 0.0283343 5.27617e-17)
(0.801428 0.0293186 1.06715e-16)