/*--------------------------------*- C++ -*----------------------------------*\
| =========                 |                                                 |
| \\      /  F ield         | OpenFOAM: The Open Source CFD Toolbox           |
|  \\    /   O peration     | Version:  2206                                  |
|   \\  /    A nd           | Website:  www.openfoam.com                      |
|    \\/     M anipulation  |                                                 |
\*---------------------------------------------------------------------------*/
FoamFile
{
    version     2.0;
    format      ascii;
    arch        "LSB;label=32;scalar=64";
    class       volScalarField;
    location    "180";
    object      alphat;
}
// * * * * * * * * * * * * * * * * * * * * * * * * * * * * * * * * * * * * * //

dimensions      [1 -1 -1 0 0 0 0];

internalField   nonuniform List<scalar> 
93840
(
6.95608e-07
2.52214e-10
6.80142e-07
7.59281e-08
2.84618e-10
5.18114e-07
5.08092e-09
4.47547e-08
1.31638e-09
3.38881e-07
6.40185e-08
1.63138e-08
4.35873e-08
4.94809e-09
2.89389e-07
2.45214e-08
3.8543e-08
1.37472e-08
5.36732e-08
5.42767e-09
2.25069e-07
3.73894e-08
2.61861e-08
3.74011e-08
9.11223e-09
4.06848e-08
6.56846e-09
2.80386e-07
2.44016e-08
3.7528e-08
2.4873e-08
3.95868e-08
1.18591e-08
4.68338e-08
6.64616e-09
2.4147e-07
3.68431e-08
2.41454e-08
3.87416e-08
2.32793e-08
3.35387e-08
1.69337e-08
3.36143e-08
6.40462e-09
2.83981e-07
2.55831e-08
4.19363e-08
2.57819e-08
3.44917e-08
2.43887e-08
3.11075e-08
1.86994e-08
3.18766e-08
6.54337e-09
2.56906e-07
3.58481e-08
2.72325e-08
3.85575e-08
2.556e-08
3.06047e-08
2.54287e-08
2.65292e-08
2.18042e-08
3.15364e-08
7.07751e-09
2.89596e-07
2.51977e-08
3.74798e-08
2.67221e-08
3.55966e-08
2.59085e-08
2.98793e-08
2.48602e-08
2.95948e-08
2.02907e-08
2.89418e-08
7.06497e-09
2.55742e-07
3.43308e-08
2.65562e-08
3.64475e-08
2.83446e-08
3.30603e-08
2.91121e-08
3.24432e-08
2.4628e-08
2.78411e-08
2.20891e-08
2.9419e-08
6.88186e-09
2.76094e-07
2.47514e-08
3.4874e-08
2.67395e-08
3.284e-08
2.88424e-08
3.22064e-08
2.7302e-08
2.9873e-08
2.48206e-08
2.92714e-08
2.17044e-08
3.05196e-08
7.07305e-09
2.62741e-07
3.42163e-08
2.58448e-08
3.53222e-08
2.71709e-08
3.25982e-08
2.66894e-08
3.08164e-08
2.66281e-08
3.35074e-08
2.52332e-08
2.83154e-08
2.16899e-08
3.04413e-08
7.06782e-09
2.7504e-07
2.51863e-08
3.44856e-08
2.66562e-08
3.15617e-08
2.73143e-08
3.04988e-08
2.8431e-08
3.45228e-08
2.72978e-08
2.97458e-08
2.35747e-08
3.0051e-08
2.16348e-08
2.91959e-08
7.09802e-09
2.61513e-07
3.49937e-08
2.61535e-08
3.54331e-08
2.6087e-08
3.17638e-08
2.54584e-08
3.09163e-08
2.55973e-08
3.26082e-08
2.66682e-08
3.30849e-08
2.5261e-08
2.83186e-08
2.21292e-08
2.99086e-08
7.03817e-09
2.69746e-07
2.59373e-08
3.50062e-08
2.71896e-08
3.171e-08
2.60622e-08
2.90699e-08
2.76423e-08
3.28574e-08
2.67912e-08
3.10525e-08
2.62361e-08
3.03357e-08
2.44786e-08
2.92891e-08
2.1935e-08
3.0237e-08
7.3089e-09
2.59977e-07
3.42692e-08
2.71809e-08
3.39401e-08
2.65691e-08
3.23238e-08
2.70297e-08
3.04847e-08
2.50995e-08
3.15776e-08
2.70321e-08
3.12119e-08
2.6529e-08
3.31096e-08
2.60645e-08
2.829e-08
2.16861e-08
3.01412e-08
7.32048e-09
2.66403e-07
2.59258e-08
3.34952e-08
2.73787e-08
3.20225e-08
2.75476e-08
2.92412e-08
2.63165e-08
3.19402e-08
2.62704e-08
3.07123e-08
2.53181e-08
3.12505e-08
2.69264e-08
3.18906e-08
2.45296e-08
2.83251e-08
2.21573e-08
2.94784e-08
7.49409e-09
2.57255e-07
3.44005e-08
2.68125e-08
3.42729e-08
2.81669e-08
3.15795e-08
2.61771e-08
3.00306e-08
2.56457e-08
3.3478e-08
2.69048e-08
3.00527e-08
2.65794e-08
3.29462e-08
2.67852e-08
2.94639e-08
2.68561e-08
2.79075e-08
2.2429e-08
3.01583e-08
7.37099e-09
2.64279e-07
2.59478e-08
3.49573e-08
2.79136e-08
3.21296e-08
2.80906e-08
3.01926e-08
2.70545e-08
3.14263e-08
2.4441e-08
3.06094e-08
2.593e-08
3.13521e-08
2.62651e-08
3.10043e-08
2.77921e-08
3.07292e-08
2.56195e-08
2.83577e-08
2.2018e-08
3.02657e-08
7.49063e-09
2.5783e-07
3.55398e-08
2.75866e-08
3.54485e-08
2.94127e-08
3.24014e-08
2.69712e-08
2.9699e-08
2.36375e-08
3.13781e-08
2.70761e-08
3.18437e-08
2.55702e-08
3.04514e-08
2.70793e-08
3.09827e-08
2.77212e-08
3.17709e-08
2.53416e-08
2.84935e-08
2.24852e-08
3.04365e-08
7.62246e-09
2.65072e-07
2.67437e-08
3.59029e-08
3.05043e-08
3.36434e-08
2.69513e-08
2.97474e-08
2.70334e-08
3.33007e-08
2.57453e-08
3.04549e-08
2.52849e-08
3.08714e-08
2.65609e-08
3.13543e-08
2.68524e-08
3.10182e-08
2.64022e-08
3.14566e-08
2.55365e-08
2.87341e-08
2.21497e-08
3.00853e-08
7.72451e-09
2.63351e-07
3.56821e-08
2.8128e-08
3.49534e-08
2.77688e-08
3.3116e-08
2.88667e-08
3.17549e-08
2.40676e-08
3.2883e-08
2.68454e-08
3.11353e-08
2.52126e-08
3.15791e-08
2.63775e-08
3.08818e-08
2.63787e-08
3.19708e-08
2.689e-08
3.1524e-08
2.55536e-08
2.85317e-08
2.26332e-08
2.97403e-08
7.70399e-09
2.72543e-07
2.71354e-08
3.5531e-08
2.9302e-08
3.43805e-08
2.83958e-08
2.99209e-08
2.65287e-08
3.23729e-08
2.78603e-08
3.3077e-08
2.75387e-08
3.15178e-08
2.57071e-08
3.08259e-08
2.65389e-08
3.15654e-08
2.67525e-08
3.1273e-08
2.59622e-08
3.13568e-08
2.59062e-08
2.8776e-08
2.23373e-08
2.96432e-08
7.38552e-09
2.42677e-07
3.46295e-08
2.75351e-08
3.44115e-08
2.77954e-08
3.27359e-08
2.90283e-08
3.25216e-08
2.56012e-08
3.24119e-08
2.6598e-08
3.133e-08
2.69732e-08
3.23074e-08
2.66864e-08
3.19579e-08
2.72216e-08
3.1128e-08
2.68887e-08
3.23126e-08
2.77779e-08
3.05273e-08
2.65761e-08
2.78101e-08
2.26795e-08
3.02654e-08
7.8173e-09
2.59921e-07
2.68643e-08
3.55465e-08
2.7946e-08
3.43187e-08
2.93033e-08
2.98848e-08
2.62145e-08
3.13723e-08
2.77315e-08
3.12911e-08
2.76473e-08
3.18905e-08
2.70606e-08
3.16883e-08
2.68993e-08
3.09522e-08
2.70054e-08
3.10889e-08
2.75e-08
3.09186e-08
2.74329e-08
3.05897e-08
2.65168e-08
2.83516e-08
2.24755e-08
3.0428e-08
8.35162e-09
2.51798e-07
3.36582e-08
2.77691e-08
3.51798e-08
2.85319e-08
3.19061e-08
2.86814e-08
3.28582e-08
2.68774e-08
3.17059e-08
2.63229e-08
3.19383e-08
2.70866e-08
3.14083e-08
2.643e-08
3.21075e-08
2.73347e-08
3.11819e-08
2.75722e-08
3.06998e-08
2.67748e-08
3.23041e-08
2.8725e-08
3.01669e-08
2.65901e-08
2.72904e-08
2.25863e-08
3.03601e-08
7.99456e-09
2.57383e-07
2.5911e-08
3.45011e-08
2.81425e-08
3.36392e-08
2.95262e-08
3.05418e-08
2.59779e-08
2.98654e-08
2.64306e-08
3.13725e-08
2.73558e-08
3.12873e-08
2.7499e-08
3.18297e-08
2.72321e-08
3.11639e-08
2.70434e-08
3.07534e-08
2.68192e-08
3.11909e-08
2.76906e-08
3.12492e-08
2.80853e-08
3.07317e-08
2.57415e-08
2.82237e-08
2.23987e-08
3.07887e-08
8.3284e-09
2.50708e-07
3.41122e-08
2.71347e-08
3.57882e-08
2.84313e-08
3.15269e-08
2.79697e-08
3.21142e-08
2.67139e-08
3.29008e-08
2.72713e-08
3.18944e-08
2.68297e-08
3.18701e-08
2.77727e-08
3.13215e-08
2.60888e-08
3.17827e-08
2.7787e-08
3.08279e-08
2.77911e-08
3.12304e-08
2.74015e-08
3.13495e-08
2.82673e-08
2.98732e-08
2.62493e-08
2.81473e-08
2.29573e-08
3.01027e-08
8.40351e-09
2.53866e-07
2.56656e-08
3.42075e-08
2.76781e-08
3.3094e-08
2.92925e-08
3.05326e-08
2.56933e-08
2.8634e-08
2.61181e-08
2.94036e-08
2.71659e-08
3.0961e-08
2.67932e-08
3.19943e-08
2.78612e-08
3.14356e-08
2.72752e-08
3.02651e-08
2.64007e-08
3.01976e-08
2.67722e-08
3.09757e-08
2.8235e-08
3.08231e-08
2.83422e-08
2.99093e-08
2.57199e-08
2.90173e-08
2.31463e-08
3.01109e-08
8.44419e-09
2.48664e-07
3.33567e-08
2.69454e-08
3.63743e-08
2.81119e-08
3.12321e-08
2.65307e-08
3.12957e-08
2.62894e-08
3.1924e-08
2.70176e-08
3.19862e-08
2.63614e-08
3.11598e-08
2.50461e-08
3.17748e-08
2.67855e-08
3.14933e-08
2.70355e-08
3.20026e-08
2.80047e-08
3.07125e-08
2.72848e-08
3.10687e-08
2.77327e-08
3.08955e-08
2.75665e-08
3.0709e-08
2.56754e-08
2.83684e-08
2.2833e-08
3.06644e-08
8.46134e-09
2.50854e-07
2.53159e-08
3.34746e-08
2.902e-08
3.3162e-08
2.88709e-08
3.0056e-08
2.53406e-08
2.91544e-08
2.54872e-08
2.98854e-08
2.62681e-08
2.99256e-08
2.69736e-08
3.16016e-08
2.82506e-08
3.16959e-08
2.73409e-08
3.10378e-08
2.7215e-08
3.05833e-08
2.62772e-08
3.0486e-08
2.67503e-08
3.04421e-08
2.76406e-08
3.16662e-08
2.79307e-08
3.17129e-08
2.61371e-08
2.86106e-08
2.291e-08
3.08935e-08
8.79232e-09
2.48385e-07
3.3539e-08
2.65945e-08
3.57669e-08
2.70039e-08
3.07725e-08
2.64999e-08
3.09327e-08
2.4772e-08
3.15665e-08
2.69293e-08
3.18546e-08
2.71118e-08
3.20521e-08
2.49917e-08
3.18329e-08
2.78488e-08
3.20361e-08
2.7762e-08
3.10637e-08
2.64509e-08
3.10778e-08
2.70592e-08
3.10142e-08
2.69673e-08
3.13811e-08
2.75977e-08
3.13269e-08
2.79e-08
3.16284e-08
2.53825e-08
2.96333e-08
2.29799e-08
3.07458e-08
8.13831e-09
2.48278e-07
2.5617e-08
3.37276e-08
2.94387e-08
3.25913e-08
2.90374e-08
2.99144e-08
2.51546e-08
2.96926e-08
2.66541e-08
3.0636e-08
2.55153e-08
3.03408e-08
2.71481e-08
2.98183e-08
2.85929e-08
3.0639e-08
2.74047e-08
3.18824e-08
2.70432e-08
3.17761e-08
2.72427e-08
3.07734e-08
2.63557e-08
3.06251e-08
2.68614e-08
3.07668e-08
2.73916e-08
3.12047e-08
2.73633e-08
3.16949e-08
2.56344e-08
2.98554e-08
2.27037e-08
3.22421e-08
8.31658e-09
2.45268e-07
3.34006e-08
2.69437e-08
3.52996e-08
2.7476e-08
3.10513e-08
2.59495e-08
3.11413e-08
2.47516e-08
3.07519e-08
2.64016e-08
3.10114e-08
2.71702e-08
3.16891e-08
2.68868e-08
3.28137e-08
2.71174e-08
3.15043e-08
2.75356e-08
3.26031e-08
2.75372e-08
3.14572e-08
2.69916e-08
3.11218e-08
2.71468e-08
3.06293e-08
2.72435e-08
3.22636e-08
2.71961e-08
3.10374e-08
2.73724e-08
3.15816e-08
2.48447e-08
3.0335e-08
2.2518e-08
3.23927e-08
8.46495e-09
2.48896e-07
2.59406e-08
3.32736e-08
2.96057e-08
3.29884e-08
2.91844e-08
3.04041e-08
2.52916e-08
3.01785e-08
2.74355e-08
3.04604e-08
2.57069e-08
3.16186e-08
2.58771e-08
2.97086e-08
2.71132e-08
3.02108e-08
2.77519e-08
3.16683e-08
2.74816e-08
3.21278e-08
2.72302e-08
3.11726e-08
2.64343e-08
3.09646e-08
2.62665e-08
3.11807e-08
2.68773e-08
3.08699e-08
2.76545e-08
3.13525e-08
2.71968e-08
3.10551e-08
2.54052e-08
3.02105e-08
2.24424e-08
3.18711e-08
8.54229e-09
2.43598e-07
3.38031e-08
2.70003e-08
3.45697e-08
2.81344e-08
3.17139e-08
2.59465e-08
3.23491e-08
2.57135e-08
3.02145e-08
2.63844e-08
3.04125e-08
2.70328e-08
3.13735e-08
2.73741e-08
3.19548e-08
2.71309e-08
3.08377e-08
2.64226e-08
3.14926e-08
2.78342e-08
3.22765e-08
2.79255e-08
3.16528e-08
2.65089e-08
3.0636e-08
2.69724e-08
3.10945e-08
2.70774e-08
3.19769e-08
2.72762e-08
3.15155e-08
2.74142e-08
3.16724e-08
2.4522e-08
3.06955e-08
2.28393e-08
3.23222e-08
8.84074e-09
2.4523e-07
2.72904e-08
3.34915e-08
2.87745e-08
3.32853e-08
3.00432e-08
3.11704e-08
2.64677e-08
3.04742e-08
2.78095e-08
3.08022e-08
2.78669e-08
3.11062e-08
2.61912e-08
3.07918e-08
2.55904e-08
2.99575e-08
2.76249e-08
3.05103e-08
2.79147e-08
3.17421e-08
2.73658e-08
3.23277e-08
2.72226e-08
3.09917e-08
2.67256e-08
3.08291e-08
2.67953e-08
3.13813e-08
2.63494e-08
3.02125e-08
2.73038e-08
3.18285e-08
2.71278e-08
3.19328e-08
2.59354e-08
3.00488e-08
2.29642e-08
3.2108e-08
8.42255e-09
2.38601e-07
3.34239e-08
2.73156e-08
3.58167e-08
2.95098e-08
3.28725e-08
2.61565e-08
3.34664e-08
2.75819e-08
3.03952e-08
2.66185e-08
3.04137e-08
2.58748e-08
3.01793e-08
2.68078e-08
3.12517e-08
2.71885e-08
3.07141e-08
2.63844e-08
3.14527e-08
2.80087e-08
3.19108e-08
2.79272e-08
3.19435e-08
2.73766e-08
3.21299e-08
2.67922e-08
3.05763e-08
2.68293e-08
3.12324e-08
2.71587e-08
3.20164e-08
2.71719e-08
3.16829e-08
2.74004e-08
3.18612e-08
2.48561e-08
3.04977e-08
2.27394e-08
3.28996e-08
8.51409e-09
2.41651e-07
2.74328e-08
3.41821e-08
2.8656e-08
3.33531e-08
2.97581e-08
3.18386e-08
2.75455e-08
3.07757e-08
2.79485e-08
3.07335e-08
2.74449e-08
3.11305e-08
2.71741e-08
3.07374e-08
2.57036e-08
3.07389e-08
2.60869e-08
2.96089e-08
2.73502e-08
3.04415e-08
2.7792e-08
3.17008e-08
2.74045e-08
3.2468e-08
2.7568e-08
3.16977e-08
2.68128e-08
3.11365e-08
2.70407e-08
3.15636e-08
2.62392e-08
3.05773e-08
2.71063e-08
3.20881e-08
2.69472e-08
3.35026e-08
2.54817e-08
3.06732e-08
2.24051e-08
3.35668e-08
8.71073e-09
2.37584e-07
3.39601e-08
2.82975e-08
3.66024e-08
2.99176e-08
3.37674e-08
2.67575e-08
3.34429e-08
2.86933e-08
3.05186e-08
2.66538e-08
3.15385e-08
2.69263e-08
3.11679e-08
2.67936e-08
3.04063e-08
2.63621e-08
3.03883e-08
2.71114e-08
3.0976e-08
2.73101e-08
3.10508e-08
2.72542e-08
3.25132e-08
2.70886e-08
3.2903e-08
2.74768e-08
3.18277e-08
2.71641e-08
3.02091e-08
2.70154e-08
3.10123e-08
2.70547e-08
3.18021e-08
2.72861e-08
3.16712e-08
2.71145e-08
3.23994e-08
2.49472e-08
3.11619e-08
2.23806e-08
3.29541e-08
8.94706e-09
2.37949e-07
2.8306e-08
3.40081e-08
2.9163e-08
3.30757e-08
2.98367e-08
3.18676e-08
2.79484e-08
3.16931e-08
2.81107e-08
3.12625e-08
2.79951e-08
3.13508e-08
2.75905e-08
3.11223e-08
2.72404e-08
3.01717e-08
2.64888e-08
3.04136e-08
2.56378e-08
2.97792e-08
2.67869e-08
3.07464e-08
2.7863e-08
3.24855e-08
2.7936e-08
3.25459e-08
2.75188e-08
3.17802e-08
2.69887e-08
3.07824e-08
2.69818e-08
3.14499e-08
2.63801e-08
3.11338e-08
2.67436e-08
3.22715e-08
2.67864e-08
3.33699e-08
2.53171e-08
3.06908e-08
2.30018e-08
3.26018e-08
9.15911e-09
2.35466e-07
3.36011e-08
2.8763e-08
3.66662e-08
2.89606e-08
3.40906e-08
2.60148e-08
3.25154e-08
2.91661e-08
3.1078e-08
2.72048e-08
3.19497e-08
2.81048e-08
3.16858e-08
2.77734e-08
3.12314e-08
2.68005e-08
3.03319e-08
2.63018e-08
3.0708e-08
2.72655e-08
3.13539e-08
2.69988e-08
3.17056e-08
2.69386e-08
3.33921e-08
2.79099e-08
3.29849e-08
2.77814e-08
3.20768e-08
2.75128e-08
3.00811e-08
2.66971e-08
3.08084e-08
2.69901e-08
3.18652e-08
2.7137e-08
3.16675e-08
2.70821e-08
3.29085e-08
2.54082e-08
3.12379e-08
2.33075e-08
3.19099e-08
9.33339e-09
2.35796e-07
2.77281e-08
3.39633e-08
3.03695e-08
3.36377e-08
2.94347e-08
3.20788e-08
2.84427e-08
3.17986e-08
2.77014e-08
3.08842e-08
2.90406e-08
3.14928e-08
2.84013e-08
3.15128e-08
2.81695e-08
3.12332e-08
2.72137e-08
3.07173e-08
2.62548e-08
2.98393e-08
2.63714e-08
2.97362e-08
2.70591e-08
3.12918e-08
2.80014e-08
3.25336e-08
2.86885e-08
3.25139e-08
2.79075e-08
3.17115e-08
2.76217e-08
3.09018e-08
2.68508e-08
3.12725e-08
2.65609e-08
3.1757e-08
2.64027e-08
3.16628e-08
2.6586e-08
3.26702e-08
2.57843e-08
3.09566e-08
2.31122e-08
3.20294e-08
8.80085e-09
2.33892e-07
3.48221e-08
2.8971e-08
3.56047e-08
2.78372e-08
3.38583e-08
2.58231e-08
3.16166e-08
2.91959e-08
3.21594e-08
2.81225e-08
3.05358e-08
2.77804e-08
3.20371e-08
2.79216e-08
3.15683e-08
2.81492e-08
3.13246e-08
2.67481e-08
3.04046e-08
2.61902e-08
3.02483e-08
2.71011e-08
3.15407e-08
2.68743e-08
3.20882e-08
2.68997e-08
3.24053e-08
2.86326e-08
3.31198e-08
2.83551e-08
3.15813e-08
2.75375e-08
2.99959e-08
2.68948e-08
3.09674e-08
2.70106e-08
3.16258e-08
2.72871e-08
3.20592e-08
2.6945e-08
3.29137e-08
2.51242e-08
3.12906e-08
2.35689e-08
3.34568e-08
8.69849e-09
2.33907e-07
2.79042e-08
3.35583e-08
3.00804e-08
3.37344e-08
3.01477e-08
3.22559e-08
2.85524e-08
3.07132e-08
2.81669e-08
2.97629e-08
2.92511e-08
3.03374e-08
2.94025e-08
3.14866e-08
2.91166e-08
3.12677e-08
2.84153e-08
3.10729e-08
2.69512e-08
3.05935e-08
2.65719e-08
2.98835e-08
2.63556e-08
3.00039e-08
2.76208e-08
3.16889e-08
2.8813e-08
3.172e-08
2.83573e-08
3.28823e-08
2.84714e-08
3.14886e-08
2.75393e-08
3.03861e-08
2.70303e-08
3.11774e-08
2.67788e-08
3.16718e-08
2.65685e-08
3.15465e-08
2.6188e-08
3.30567e-08
2.53872e-08
3.13752e-08
2.2891e-08
3.40039e-08
9.02875e-09
2.30988e-07
3.43949e-08
2.83794e-08
3.42269e-08
2.81619e-08
3.33564e-08
2.5518e-08
3.08086e-08
2.89893e-08
3.05919e-08
2.88249e-08
3.04965e-08
2.78184e-08
3.06884e-08
2.73548e-08
3.15132e-08
2.85994e-08
3.09189e-08
2.83772e-08
3.13344e-08
2.69671e-08
3.02557e-08
2.72115e-08
3.0286e-08
2.72624e-08
3.19766e-08
2.69972e-08
3.173e-08
2.726e-08
3.24599e-08
2.86155e-08
3.30113e-08
2.85973e-08
3.13878e-08
2.73481e-08
3.0331e-08
2.72984e-08
3.11343e-08
2.70063e-08
3.1709e-08
2.79056e-08
3.16701e-08
2.69224e-08
3.25677e-08
2.49632e-08
3.11622e-08
2.27017e-08
3.3189e-08
9.23032e-09
2.29494e-07
2.90012e-08
3.3356e-08
2.89308e-08
3.33394e-08
2.98207e-08
3.19725e-08
2.86391e-08
3.07653e-08
2.81946e-08
2.99521e-08
2.90259e-08
2.98888e-08
2.88106e-08
3.02633e-08
2.94127e-08
3.1107e-08
2.95108e-08
3.10011e-08
2.83581e-08
3.11625e-08
2.68865e-08
3.09192e-08
2.66635e-08
3.00081e-08
2.64464e-08
3.00855e-08
2.84453e-08
3.1241e-08
2.79241e-08
3.15611e-08
2.89414e-08
3.29017e-08
2.85134e-08
3.15251e-08
2.76083e-08
3.06311e-08
2.72988e-08
3.11515e-08
2.69135e-08
3.15235e-08
2.7166e-08
3.2323e-08
2.65534e-08
3.32583e-08
2.49308e-08
3.14217e-08
2.33056e-08
3.26244e-08
9.63688e-09
2.28144e-07
3.37504e-08
2.71112e-08
3.34067e-08
2.99225e-08
3.28513e-08
2.58103e-08
3.03802e-08
2.85501e-08
3.08822e-08
2.89421e-08
3.01171e-08
2.84154e-08
3.0481e-08
2.78061e-08
3.11136e-08
2.85942e-08
3.14272e-08
2.90606e-08
3.08075e-08
2.79574e-08
3.10965e-08
2.74139e-08
3.02007e-08
2.74581e-08
3.02744e-08
2.6891e-08
3.21138e-08
2.69992e-08
3.20746e-08
2.78493e-08
3.23461e-08
2.89363e-08
3.25629e-08
2.86163e-08
3.15648e-08
2.70836e-08
3.08989e-08
2.7332e-08
3.11253e-08
2.70997e-08
3.12859e-08
2.73054e-08
3.15241e-08
2.60372e-08
3.33205e-08
2.47664e-08
3.08572e-08
2.3464e-08
3.23562e-08
9.0587e-09
2.2888e-07
2.89916e-08
3.48651e-08
2.87402e-08
3.27535e-08
2.97936e-08
3.2192e-08
2.8602e-08
3.12023e-08
2.86457e-08
3.02626e-08
2.83222e-08
3.00096e-08
2.81086e-08
3.02943e-08
2.92618e-08
3.01485e-08
2.94808e-08
3.06407e-08
2.96137e-08
3.09054e-08
2.90271e-08
3.07624e-08
2.68925e-08
3.05001e-08
2.68094e-08
3.00013e-08
2.70095e-08
3.01653e-08
2.79013e-08
3.12069e-08
2.81739e-08
3.16121e-08
2.89233e-08
3.25957e-08
2.85314e-08
3.17674e-08
2.76089e-08
3.08937e-08
2.70901e-08
3.10543e-08
2.74197e-08
3.14391e-08
2.71014e-08
3.24841e-08
2.61355e-08
3.407e-08
2.5668e-08
3.12489e-08
2.35374e-08
3.32925e-08
9.20819e-09
2.26506e-07
3.28262e-08
2.80614e-08
3.36665e-08
3.04148e-08
3.28369e-08
2.71753e-08
3.08085e-08
2.88353e-08
3.13081e-08
2.91392e-08
3.023e-08
2.83736e-08
3.06756e-08
2.81836e-08
3.05777e-08
2.82302e-08
3.1874e-08
2.86523e-08
3.05387e-08
2.92885e-08
3.11799e-08
2.83785e-08
3.08762e-08
2.78227e-08
3.03027e-08
2.71328e-08
3.01375e-08
2.71829e-08
3.20822e-08
2.79679e-08
3.14633e-08
2.8109e-08
3.21729e-08
2.9506e-08
3.29931e-08
2.84165e-08
3.17199e-08
2.75082e-08
3.1289e-08
2.72834e-08
3.13361e-08
2.72039e-08
3.14362e-08
2.68163e-08
3.26081e-08
2.678e-08
3.3628e-08
2.54666e-08
3.09571e-08
2.32427e-08
3.34495e-08
9.36371e-09
2.26763e-07
2.94992e-08
3.34469e-08
2.74385e-08
3.24174e-08
2.95925e-08
3.22089e-08
2.81988e-08
3.11827e-08
2.95354e-08
3.05119e-08
2.88301e-08
3.02139e-08
2.84849e-08
3.05959e-08
2.8102e-08
3.02979e-08
2.91178e-08
3.00891e-08
2.93613e-08
3.07155e-08
2.92081e-08
3.09009e-08
2.90314e-08
3.06028e-08
2.73696e-08
3.04737e-08
2.67391e-08
2.98203e-08
2.66979e-08
3.02081e-08
2.80008e-08
3.15012e-08
2.85963e-08
3.14622e-08
2.90971e-08
3.22875e-08
2.89751e-08
3.19162e-08
2.80571e-08
3.1518e-08
2.71714e-08
3.07996e-08
2.75724e-08
3.1579e-08
2.65278e-08
3.22119e-08
2.71696e-08
3.38364e-08
2.61127e-08
3.15348e-08
2.32138e-08
3.35039e-08
9.66301e-09
2.25109e-07
3.1799e-08
2.87187e-08
3.53055e-08
3.07465e-08
3.38495e-08
2.88184e-08
3.09025e-08
2.94617e-08
3.20565e-08
3.05903e-08
3.14206e-08
2.87842e-08
3.05936e-08
2.8072e-08
3.08417e-08
2.79963e-08
3.03554e-08
2.81499e-08
3.08048e-08
2.89917e-08
3.0967e-08
2.89504e-08
3.08874e-08
2.85423e-08
3.08449e-08
2.76846e-08
3.00767e-08
2.75248e-08
3.02471e-08
2.75585e-08
3.23379e-08
2.77083e-08
3.13275e-08
2.85731e-08
3.21519e-08
2.95106e-08
3.28736e-08
2.87889e-08
3.17088e-08
2.76585e-08
3.14612e-08
2.72873e-08
3.11194e-08
2.74683e-08
3.18017e-08
2.69758e-08
3.27562e-08
2.70417e-08
3.3934e-08
2.59293e-08
3.15632e-08
2.33585e-08
3.27589e-08
9.61617e-09
2.26774e-07
3.01752e-08
3.3311e-08
2.82813e-08
3.23106e-08
2.97897e-08
3.2592e-08
2.82478e-08
3.16455e-08
3.06552e-08
3.12686e-08
2.89151e-08
3.04703e-08
2.89794e-08
3.00657e-08
2.77295e-08
3.07881e-08
2.78977e-08
3.06559e-08
2.91822e-08
3.02025e-08
2.92144e-08
3.05073e-08
2.97667e-08
3.04665e-08
2.91035e-08
3.05328e-08
2.81169e-08
3.00667e-08
2.66776e-08
3.00886e-08
2.70704e-08
3.00414e-08
2.85344e-08
3.12475e-08
2.82587e-08
3.18337e-08
2.91946e-08
3.22692e-08
2.91121e-08
3.23603e-08
2.81013e-08
3.14701e-08
2.71542e-08
3.06454e-08
2.71344e-08
3.16445e-08
2.64931e-08
3.25317e-08
2.7768e-08
3.36151e-08
2.60902e-08
3.18849e-08
2.37116e-08
3.2757e-08
9.71572e-09
2.22691e-07
3.03417e-08
2.82365e-08
3.52147e-08
2.99255e-08
3.39829e-08
2.92555e-08
3.06951e-08
2.99757e-08
3.17234e-08
3.13367e-08
3.2087e-08
2.9823e-08
3.06982e-08
2.84172e-08
3.09389e-08
2.77683e-08
3.02784e-08
2.84414e-08
3.06946e-08
2.80179e-08
3.115e-08
2.89118e-08
3.04273e-08
2.8991e-08
3.11681e-08
2.84737e-08
3.01109e-08
2.7728e-08
3.01926e-08
2.75193e-08
3.01533e-08
2.8014e-08
3.06283e-08
2.83867e-08
3.10425e-08
2.84798e-08
3.21067e-08
2.98966e-08
3.30661e-08
2.91672e-08
3.19021e-08
2.77063e-08
3.18352e-08
2.71894e-08
3.10253e-08
2.76692e-08
3.16964e-08
2.70721e-08
3.25228e-08
2.80798e-08
3.35925e-08
2.68475e-08
3.17438e-08
2.37557e-08
3.25193e-08
9.90931e-09
2.23289e-07
2.94174e-08
3.34852e-08
2.87591e-08
3.26172e-08
2.98572e-08
3.26991e-08
2.87041e-08
3.22155e-08
3.07618e-08
3.25928e-08
2.92256e-08
3.15531e-08
2.91886e-08
3.0504e-08
2.89444e-08
3.02845e-08
2.76448e-08
3.00483e-08
2.81354e-08
2.98781e-08
2.88046e-08
2.98188e-08
2.95211e-08
3.13774e-08
2.89782e-08
3.08678e-08
2.93988e-08
3.03251e-08
2.86209e-08
3.00954e-08
2.67884e-08
3.01476e-08
2.71012e-08
3.05657e-08
2.8995e-08
3.14214e-08
2.84655e-08
3.16983e-08
2.95495e-08
3.20219e-08
2.89575e-08
3.2198e-08
2.82626e-08
3.16354e-08
2.69356e-08
3.07766e-08
2.72558e-08
3.166e-08
2.67981e-08
3.21406e-08
2.79271e-08
3.34987e-08
2.66037e-08
3.18778e-08
2.41216e-08
3.23048e-08
1.01256e-08
2.22319e-07
3.13334e-08
2.78946e-08
3.61248e-08
3.068e-08
3.43542e-08
2.90136e-08
3.04966e-08
3.02719e-08
3.07052e-08
3.16528e-08
3.17492e-08
3.058e-08
3.18099e-08
2.97173e-08
3.0559e-08
2.83227e-08
3.00359e-08
2.79343e-08
3.09584e-08
2.88888e-08
3.07025e-08
2.84607e-08
3.16123e-08
2.89615e-08
3.06442e-08
2.89353e-08
3.11568e-08
2.84264e-08
3.02418e-08
2.78042e-08
2.99651e-08
2.7399e-08
3.01317e-08
2.84992e-08
3.08373e-08
2.86239e-08
3.11895e-08
2.85567e-08
3.17494e-08
3.01899e-08
3.26903e-08
2.89939e-08
3.19302e-08
2.75978e-08
3.19423e-08
2.7055e-08
3.14312e-08
2.76429e-08
3.13686e-08
2.78959e-08
3.23402e-08
2.85491e-08
3.32356e-08
2.69834e-08
3.16886e-08
2.3933e-08
3.18647e-08
9.73763e-09
2.21065e-07
2.88459e-08
3.24842e-08
3.03824e-08
3.3044e-08
3.05951e-08
3.28181e-08
2.93216e-08
3.24276e-08
3.01117e-08
3.32772e-08
2.99683e-08
3.23569e-08
3.013e-08
3.1472e-08
2.95676e-08
3.02246e-08
2.93467e-08
3.03045e-08
2.83066e-08
2.95008e-08
2.82701e-08
3.04029e-08
2.86546e-08
3.03313e-08
2.90374e-08
3.05465e-08
2.90359e-08
3.10934e-08
2.94082e-08
3.06522e-08
2.87565e-08
3.00733e-08
2.70244e-08
3.0018e-08
2.69222e-08
3.05964e-08
2.87718e-08
3.09151e-08
2.8857e-08
3.20105e-08
2.9987e-08
3.22738e-08
2.90363e-08
3.1699e-08
2.79119e-08
3.19278e-08
2.68252e-08
3.11261e-08
2.70946e-08
3.12709e-08
2.72621e-08
3.21851e-08
2.82551e-08
3.3035e-08
2.71467e-08
3.13383e-08
2.42334e-08
3.28817e-08
9.8419e-09
2.17905e-07
3.21878e-08
2.7896e-08
3.48687e-08
3.08972e-08
3.43973e-08
2.82796e-08
3.03606e-08
2.99181e-08
2.94937e-08
3.14182e-08
3.10186e-08
3.21709e-08
3.14045e-08
3.09151e-08
3.084e-08
2.96094e-08
3.05416e-08
2.84262e-08
2.97623e-08
2.85062e-08
3.06026e-08
2.86653e-08
3.08057e-08
2.81332e-08
3.12053e-08
2.87093e-08
3.10651e-08
2.86481e-08
3.0499e-08
2.85572e-08
3.03033e-08
2.81538e-08
2.98747e-08
2.78534e-08
2.99627e-08
2.85896e-08
3.08334e-08
2.85436e-08
3.13198e-08
2.86641e-08
3.14672e-08
3.02065e-08
3.22182e-08
2.87727e-08
3.22438e-08
2.73655e-08
3.19524e-08
2.71922e-08
3.17983e-08
2.80313e-08
3.15827e-08
2.78554e-08
3.27335e-08
2.85962e-08
3.25658e-08
2.76869e-08
3.11337e-08
2.37103e-08
3.25179e-08
1.01463e-08
2.1796e-07
2.98388e-08
3.27679e-08
3.10528e-08
3.31907e-08
3.05271e-08
3.29609e-08
2.9555e-08
3.20741e-08
2.96368e-08
3.30663e-08
2.9969e-08
3.25681e-08
3.01551e-08
3.14526e-08
3.03795e-08
3.14986e-08
2.97931e-08
2.98779e-08
2.95767e-08
2.94984e-08
2.80508e-08
3.00961e-08
2.82496e-08
3.03392e-08
2.90388e-08
3.04305e-08
2.90721e-08
3.09563e-08
2.90944e-08
3.09971e-08
2.91915e-08
2.97994e-08
2.86337e-08
3.01148e-08
2.75664e-08
3.00525e-08
2.73769e-08
3.03628e-08
2.83798e-08
3.08881e-08
2.97219e-08
3.16624e-08
3.00311e-08
3.21176e-08
2.87062e-08
3.19682e-08
2.77289e-08
3.19812e-08
2.73063e-08
3.12801e-08
2.68562e-08
3.13409e-08
2.7637e-08
3.27844e-08
2.93532e-08
3.24344e-08
2.78099e-08
3.10653e-08
2.42417e-08
3.23868e-08
1.01911e-08
2.16699e-07
3.19929e-08
2.80193e-08
3.57248e-08
3.08422e-08
3.38072e-08
2.79028e-08
3.03025e-08
2.937e-08
2.9005e-08
3.06112e-08
3.01045e-08
3.19728e-08
3.14258e-08
3.13314e-08
3.16174e-08
3.05932e-08
3.09521e-08
2.96382e-08
3.02139e-08
2.89729e-08
3.02814e-08
2.89071e-08
3.01623e-08
2.92075e-08
3.05024e-08
2.83958e-08
3.107e-08
2.8787e-08
3.08564e-08
2.87072e-08
3.14621e-08
2.88776e-08
3.04486e-08
2.82937e-08
3.02074e-08
2.75885e-08
2.99129e-08
2.87698e-08
3.05175e-08
2.87875e-08
3.11223e-08
2.88145e-08
3.14178e-08
3.03898e-08
3.24376e-08
2.86464e-08
3.21596e-08
2.73612e-08
3.21471e-08
2.75379e-08
3.17814e-08
2.83004e-08
3.16956e-08
2.77582e-08
3.30099e-08
2.82341e-08
3.27721e-08
2.74374e-08
3.05728e-08
2.4122e-08
3.22277e-08
1.03669e-08
2.16535e-07
2.98326e-08
3.28224e-08
3.12067e-08
3.30939e-08
3.01816e-08
3.28141e-08
2.91711e-08
3.14878e-08
2.9503e-08
3.24047e-08
3.00212e-08
3.30036e-08
3.00949e-08
3.2327e-08
3.08391e-08
3.14546e-08
3.04081e-08
3.03027e-08
3.00319e-08
2.95978e-08
2.96384e-08
2.95448e-08
2.88626e-08
2.99743e-08
2.85727e-08
2.9908e-08
2.90827e-08
3.028e-08
2.9067e-08
3.09719e-08
2.94268e-08
3.05054e-08
2.91933e-08
2.98375e-08
2.85129e-08
2.99469e-08
2.77659e-08
2.99518e-08
2.7651e-08
3.03322e-08
2.89188e-08
3.07842e-08
3.00166e-08
3.13746e-08
2.99814e-08
3.21474e-08
2.8544e-08
3.24461e-08
2.78138e-08
3.22177e-08
2.75919e-08
3.12322e-08
2.70067e-08
3.1456e-08
2.7705e-08
3.28947e-08
2.91673e-08
3.23647e-08
2.81966e-08
3.05764e-08
2.43877e-08
3.25547e-08
1.01388e-08
2.12619e-07
3.23645e-08
2.81296e-08
3.52778e-08
3.0812e-08
3.22907e-08
2.80468e-08
3.03678e-08
2.91519e-08
2.89352e-08
3.01252e-08
2.95273e-08
3.18546e-08
2.96476e-08
3.2078e-08
3.09587e-08
3.17105e-08
3.1427e-08
3.0428e-08
3.05407e-08
3.01751e-08
2.98966e-08
2.91996e-08
2.98819e-08
2.8729e-08
3.01864e-08
2.89431e-08
3.06167e-08
2.8716e-08
3.10116e-08
2.91004e-08
3.08132e-08
2.90975e-08
3.11952e-08
2.89106e-08
3.01508e-08
2.81306e-08
2.98368e-08
2.80311e-08
2.92233e-08
2.89934e-08
3.05626e-08
2.87756e-08
3.06221e-08
2.9151e-08
3.11207e-08
3.00346e-08
3.24496e-08
2.85201e-08
3.22715e-08
2.76904e-08
3.27718e-08
2.7786e-08
3.18045e-08
2.87504e-08
3.22392e-08
2.80651e-08
3.27929e-08
2.98054e-08
3.23826e-08
2.78783e-08
3.04509e-08
2.45311e-08
3.27198e-08
1.02792e-08
2.13863e-07
3.0149e-08
3.26953e-08
3.13827e-08
3.36698e-08
2.99013e-08
3.275e-08
2.88017e-08
3.08365e-08
2.91388e-08
3.18584e-08
2.9919e-08
3.18965e-08
3.05153e-08
3.36329e-08
3.04891e-08
3.22748e-08
3.04558e-08
3.15479e-08
3.03585e-08
2.99457e-08
2.98867e-08
2.96221e-08
2.96895e-08
2.96705e-08
2.91746e-08
2.99913e-08
2.88612e-08
3.01691e-08
2.96104e-08
3.01433e-08
2.99217e-08
3.0858e-08
2.91787e-08
3.04013e-08
2.94579e-08
3.00083e-08
2.86489e-08
2.99691e-08
2.82677e-08
2.97207e-08
2.75534e-08
3.00206e-08
2.9092e-08
3.04278e-08
3.01478e-08
3.13477e-08
2.97787e-08
3.24313e-08
2.85395e-08
3.2909e-08
2.79269e-08
3.20894e-08
2.759e-08
3.12389e-08
2.73357e-08
3.17189e-08
2.82844e-08
3.26781e-08
2.92644e-08
3.21908e-08
2.88352e-08
3.03755e-08
2.43145e-08
3.3134e-08
1.038e-08
2.10534e-07
3.24026e-08
2.82063e-08
3.45607e-08
3.05426e-08
3.25176e-08
2.86921e-08
3.03887e-08
2.90887e-08
2.89633e-08
3.01159e-08
2.93774e-08
3.08663e-08
2.99724e-08
3.04356e-08
3.03464e-08
3.11717e-08
3.12169e-08
3.09768e-08
3.01477e-08
3.04565e-08
3.02468e-08
2.99213e-08
2.99444e-08
2.88613e-08
2.95207e-08
2.89933e-08
2.99064e-08
2.9125e-08
3.05472e-08
2.88372e-08
3.09377e-08
2.91992e-08
3.07304e-08
2.92509e-08
3.11432e-08
2.91813e-08
2.99503e-08
2.83327e-08
2.93925e-08
2.80411e-08
2.95133e-08
2.87715e-08
3.07624e-08
2.90561e-08
3.03649e-08
2.92005e-08
3.12607e-08
2.9974e-08
3.20546e-08
2.86579e-08
3.28348e-08
2.80402e-08
3.27848e-08
2.79448e-08
3.2054e-08
2.86807e-08
3.18047e-08
2.89973e-08
3.26066e-08
3.00578e-08
3.21809e-08
2.80663e-08
3.0425e-08
2.40009e-08
3.28708e-08
1.04658e-08
2.10102e-07
3.04895e-08
3.28282e-08
3.12592e-08
3.38905e-08
2.84373e-08
3.2765e-08
2.8245e-08
3.03015e-08
2.90549e-08
3.18596e-08
2.98064e-08
3.15357e-08
3.00015e-08
3.13284e-08
3.07998e-08
3.30692e-08
3.08643e-08
3.17707e-08
3.06818e-08
3.20476e-08
3.00895e-08
3.03055e-08
3.0013e-08
2.95781e-08
3.01297e-08
2.96189e-08
2.93531e-08
2.98391e-08
2.91624e-08
2.995e-08
2.9526e-08
3.02851e-08
2.99227e-08
3.06246e-08
2.93665e-08
3.04523e-08
2.98036e-08
2.9823e-08
2.8996e-08
2.97395e-08
2.82927e-08
2.90501e-08
2.78245e-08
2.98209e-08
2.91911e-08
3.02205e-08
2.99823e-08
3.11273e-08
2.98436e-08
3.22976e-08
2.84808e-08
3.30344e-08
2.85279e-08
3.20858e-08
2.78993e-08
3.10829e-08
2.78314e-08
3.19101e-08
2.84013e-08
3.23849e-08
2.94204e-08
3.17124e-08
2.8465e-08
3.07116e-08
2.40228e-08
3.31625e-08
1.06376e-08
2.08291e-07
3.27807e-08
2.8295e-08
3.38982e-08
3.09327e-08
3.21297e-08
2.90153e-08
3.00465e-08
2.91132e-08
2.89936e-08
3.04871e-08
2.92337e-08
3.09204e-08
2.96501e-08
3.12419e-08
3.04573e-08
3.0511e-08
3.02249e-08
3.17176e-08
3.11292e-08
3.11666e-08
3.04968e-08
3.04988e-08
3.05218e-08
2.99463e-08
2.94264e-08
2.88953e-08
2.96387e-08
2.92047e-08
2.97441e-08
2.93076e-08
3.02244e-08
2.9207e-08
3.04982e-08
2.97619e-08
3.07422e-08
2.93058e-08
3.06942e-08
2.91177e-08
2.97283e-08
2.81333e-08
2.9392e-08
2.82615e-08
2.95948e-08
2.91016e-08
3.03388e-08
2.92662e-08
2.9987e-08
2.93797e-08
3.11177e-08
2.95959e-08
3.21688e-08
2.87232e-08
3.29508e-08
2.85232e-08
3.28344e-08
2.83669e-08
3.19482e-08
2.88228e-08
3.2131e-08
2.95903e-08
3.22022e-08
3.04556e-08
3.16877e-08
2.80623e-08
3.0933e-08
2.41515e-08
3.3185e-08
1.07331e-08
2.09098e-07
3.06598e-08
3.27654e-08
3.11229e-08
3.31289e-08
2.76206e-08
3.2932e-08
2.81337e-08
3.01801e-08
2.90763e-08
3.15801e-08
3.0217e-08
3.17288e-08
2.98591e-08
3.12357e-08
3.01179e-08
3.15096e-08
3.13229e-08
3.15558e-08
3.06883e-08
3.18711e-08
3.08148e-08
3.1239e-08
3.03981e-08
3.01283e-08
3.06146e-08
2.96581e-08
2.96136e-08
2.95694e-08
2.93858e-08
2.97209e-08
2.9116e-08