/*--------------------------------*- C++ -*----------------------------------*\
| =========                 |                                                 |
| \\      /  F ield         | OpenFOAM: The Open Source CFD Toolbox           |
|  \\    /   O peration     | Version:  2206                                  |
|   \\  /    A nd           | Website:  www.openfoam.com                      |
|    \\/     M anipulation  |                                                 |
\*---------------------------------------------------------------------------*/
FoamFile
{
    version     2.0;
    format      ascii;
    arch        "LSB;label=32;scalar=64";
    class       volScalarField;
    location    "180";
    object      ducSensor;
}
// * * * * * * * * * * * * * * * * * * * * * * * * * * * * * * * * * * * * * //

dimensions      [0 0 0 0 0 0 0];

internalField   nonuniform List<scalar> 
93840
(
0.472723
0
0.457839
0.0102758
0
0.448817
0
0.435447
0
0.418199
0.399943
0
0.366085
0
0.432525
0
0.00135311
0
0.00501926
0
0.435473
0
0.00915099
0
0
0.00956857
0
0.440308
0.00469919
0
0.0067006
0.32197
0
0.0210903
0
0.438478
0
0.00413898
0.000916509
0
0.270091
0
0.292145
0
0.450174
0
0
0
0.0069429
0
0.2062
0
0.278596
0
0.447627
0.00354374
0
0
0
0.00731654
0
0.00806375
0
0.282538
0
0.460124
0.00390051
0.011516
0.00522742
0.00822604
0.00255768
0.0131075
0
0
0
0.256197
0
0.457535
0.000388603
0.0169156
0.00915807
0
0.0113126
0
0
0
0.00586079
0
0.264262
0
0.463072
0.00784542
0
0.0220106
0.014531
0
0
0.0336024
0.0236377
0.027495
0
0
0.260786
0
0.460563
0
0.00201702
0.00145299
0.0152285
0.00785748
0.0171894
0
0.0178127
0
0.0286147
0.0103568
0
0.265582
0
0.463831
0
0
0
0.0012465
0.0287262
0.0128319
0.0267636
0
0
0.0647737
0.0130102
0
0
0.265231
0
0.461035
0.00871356
0
0.00738535
0.0173348
0.00194317
0
0
0.00947942
0.0421763
0.0527104
0
0
0.0235686
0
0.259593
0
0.463641
0.0068699
0.0241463
0
0.0178752
0
0.0236531
0.0349421
0.0222612
0
0
0
0.0145627
0
0.0468916
0
0.254872
0
0.460336
0.0109895
0.0309547
0.0143454
0
0.000440459
0.0144577
0
0
0.0164184
0.0726986
0.0128579
0
0.0854101
0
0.0702329
0
0.249931
0
0.462954
0.0172839
0
0.0380062
0.0194692
0
0
0.0155122
0
0
0.0239725
0
0
0
0.0947756
0
0.0237532
0
0.2439
0
0.459551
0
0
0
0
0.0140751
0.0551263
0
0.0105
0
0.0232251
0
0
0
0
0.00528
0.0766913
0
0
0.24723
0
0.462172
0.00732728
0
0
0
0.0336809
0.0109346
5.70902e-06
0
0
0.0141648
0.0552955
0
0
0.0552744
0.120816
0
0.0994822
0
0
0.24148
0
0.45896
0
0
0.0191698
0.0283069
0
0.000338196
0
0.063026
0.0576919
0
0.0248046
0
0
0
0.0904831
0.0862437
0
0
0
0
0.245715
0
0.461684
0
0
0
0.00676303
0.0137798
0.0247773
0.0306712
0
0
0.0125797
0.0653578
0.0125805
0
0
0.0564971
0
0.0815336
0.0281548
0
0.00419462
0
0.238506
0
0.458274
0.00623054
0.0145786
0.0319777
0.0531641
0
0
0
0
0
0
0
0
0.00464082
0
0
0.00525482
0
0.0364125
0.0320509
0
0.0234649
0
0.240074
0
0.460477
0.000830383
0
0.0398579
0
0
0.0118792
0.0363381
0.0316231
0
0.044439
0
0
0
0.00131764
0.00609065
0.0149184
0
0.0145739
0
0.0437546
0
0.0416139
0
0.234434
0
0.459593
0.0119495
0
0
0
0.0390317
0.0224732
0
0
0.00417858
0
0.0414682
0.0412649
0
0
0.0029886
0
0.0337322
0
0
0
0.0553549
0
0.0615626
0
0.234837
0
0.461154
0.013687
0.0100264
0.01333
0.026038
0
0
0.00940311
0.0282188
0.0186907
0.0315105
0.0059979
0.00582182
0.0018452
0
0
0.0604453
0.00240658
0.0456846
0.0678769
0.0619724
0
0.09148
0.070894
0.00321495
0
0.227298
0
0.459298
0.00408082
0.0198037
0
0
0.011649
0.0145534
0.0027258
0
0.0042255
0.0109563
0
0.0223894
0.0111417
0.015977
0.00836105
0
0.0321485
0
0.0158388
0
0.0361989
0
0.00850791
0.00273586
0
0
0.230287
0
0.461435
0.00232551
0
0.0102567
0.0045489
0
0
0.0297216
0.0182328
0.0236125
0.00609432
0.0146879
0.0173623
0
0.0419176
0.0127101
0
0
0.0577106
0.0317549
0
0
0.0378388
0
0
0.0650096
0.01946
0
0.224702
0
0.460468
0
0
0
0
0.00784407
0.0304329
0.0173021
0
0
0
0.00043384
0.0691586
0
0.0131268
0.0533654
0.0268195
0.0761964
0.0173451
0
0.0847099
0
0.015453
0.0622043
0.00297773
0.00314922
0.0299279
0
0
0.225456
0
0.461548
0.00855876
0
0
0.0182426
0.0250582
0
0.00873392
0
0.0248487
0.0167736
0.0622177
0.0513006
0.0999975
0.0189184
0.0605556
0
0
0
0.0318785
0.0201374
0.0327271
0
0.0114773
0.0322348
0.0261334
0
0.0379149
0
0
0.219607
0
0.460399
0
0.0113385
0
0.0335713
0.00564275
0.00338515
0.00458052
0.00743313
0
0
0
0.0294883
0
0
0.039644
0.039482
0.0493427
0.0299066
0.025398
0.0157316
0
0.023806
0.0505461
0.0400766
0.00619865
0.0681545
0
0.014006
0
0
0.224894
0
0.459301
0
0
0
0
0
0
0.0248702
0
0
0
0
0.0326313
0.0999883
0
0
0
0
0.0771872
0.0579927
0.000442982
0.0351255
0
0.0459284
0.0014788
0.0598544
0.00738427
0.0173311
0
0.0218571
0.000850382
0
0.19878
0
0.467902
0.00917614
0
0.000916219
0
0.0157248
0.0216854
0.00376862
0
0
0
0
0
0
0
0.127071
0.0871759
0
0.0237355
0
0
0.0600588
0.0649572
0
0
0
0.0118033
0.0030768
0.0481994
0.0258508
0.0209901
0
0
0
0
0.46829
0.0162631
0
0
0
0.00218678
0
0.018619
0
0
0
0
0.00470233
0.0836936
0.030796
0
0.0424014
0.0410341
0.0133685
0.0761419
0
0.000832033
0
0.0513126
0
0.0211949
0
0.0209866
0
0.0340379
0.00545322
0.0955004
0
0.0628482
0
0
0.467167
0
0
0.0254121
0
0.00552712
0.0456719
0
0
0.0062785
0.0380713
0
0
0.0120253
0
0.00976045
0.0398472
0
0.0210018
0
0
0.0447962
0.0483968
0
0.0376763
0
0
0
0
0.0144308
0
0
0
0
0
0.303839
0
0.464334
0
0.00994753
0.0167049
0
0
0
0.0163671
0.0173542
0
0
0
0
0
0
0
0.0579815
0.0999333
0
0.0614333
0.0178393
0
0.00310718
0.100011
0
0
0
0.0101653
0.00944572
0.0343243
0
0.000479721
0
0
0
0
0.291575
0
0.463108
0.0320098
0.0136537
0
0
0
0.0318358
0
0
0
0
0.0191748
0
0.0128131
0.0669767
0.0123525
0
0.00870521
0
0
0
0.0375606
0.0203595
0
0
0
0
0
0.0236008
0.0209583
0.062737
0
0.00600013
0
0
0
0
0.235224
0
0.471499
0.0171568
0
0.0245869
0.0203935
0.0339077
0
0
0.0413228
0
0.00387655
0.0371051
0.0219162
0
0
0.00610784
0.0703127
0.076379
0
0
0
0.00151808
0.0212683
0.0796335
0
0
0
0
0
0
0
0.0400584
0
0.00975282
0
0.00776783
0
0
0
0
0.468504
0.00107518
0
0
0
0.000428792
0.00889937
0
0
0
0.0259735
0
0.0541184
0.0319662
0.047281
0.0154068
0
0.0320123
0
0.0414902
0
0
0.0402894
0
0
0
0
0.0502523
0
0
0.0804253
0
0.0303634
0
0.0434776
0
0.0403823
0
0.0995899
0
0
0.468667
0.0157828
0.00414323
0.000431027
0.024347
0.0424938
0.00331537
0
0.0285525
0.00309135
0
0
0
0
0
0.0527064
0.0390079
0.0930797
0
0
0
0.0981196
0
0.0999734
0
0
0
0
0
0
0
0.0195838
0
0
0
0.0745195
0
0
0
0.000471426
0.309195
0
0.467257
0.009967
0
0
0.0374041
0
0.017301
0.0166971
0.0211843
0
0.0188748
0
0
0
0.0153331
0
0
0.0352114
0.00686077
0
0.0832126
0
0
0
0
0
0
0
0
0.0433784
0.00970006
0
0
0.00903598
0.00571237
0
0.0217559
0
0
0.0094134
0
0.330417
0
0.467809
0.019025
0.01777
0
0.0121739
0.0255438
0.00374328
0
0.0177458
0
0
0
0.0128368
0
0.00618551
0
0
0.0101538
0
0
0
0.0349805
0
0.0515856
0
0
0.00640219
0
0
0
0.035469
0
0
0
0
0.0237403
0.0054693
0
0
0
0
0
0.310199
0
0.461783
0
0.00937417
0.013452
0.0640714
0
0.0253549
0.00579265
0.0145613
0.00191301
0
0.00717913
0.00353616
0.0140919
0
0
0.0480421
0
0.083984
0.00649243
0
0
0
0
0
0
0
0.00447265
0
0.0210774
0
0
0
0.013192
0
0
0.0128949
0
0.0722577
0
0
0.0171188
0
0.239835
0
0.473171
0.0527651
0.0162504
0
0
0
0
0
0.0185707
0
0.0370533
0
0
0.0114868
0.0313827
0
0.0113876
0.0519482
0
0
0.0258663
0.00913847
0
0
0
0
0.0759385
0
0
0
0.0789071
0
0.00907556
0
0
0
0
0
0
0
0
0.0105631
0
0
0
0
0.469524
0
0.0174607
0.0477437
0.0329322
0.0158477
0.0302764
0.00434367
0.013139
0.000994423
0
0.0337563
0.00346483
0.00540885
0
0.0387774
0
0.00395268
0.0459897
0
0
0.0433032
0
0
0
0
0
0.182514
0.0956332
0.0175615
0
0.0211293
0.0384518
0
0
0.0225329
0
0
0.0597239
0.0004631
0.0541764
0
0.0573794
0
0.0441547
0
0
0.470055
0
0.0177504
0.0199634
0
0
0
0
0.0107695
0
0.051684
0
0
0
0.0349098
0
0.0737161
0
0
0.00599543
0
0
0
0.0293651
0
0
0.0106342
0
0.0488856
0
0
0
0.0389438
0.061525
0
0
0
0
0
0
0
0
0
0.0214033
0
0.00689521
0.323663
0
0.464371
0.0160485
0.0546037
0.0321482
0
0.0103266
0.0100154
6.82623e-05
0.026174
0
0
0
0.0393259
0
0.0091257
0.0452941
0
0.091393
0.0280907
0.00690071
0.0020867
0
0
0.0107809
0
0
0
0.00562286
0.0928104
0.0517476
0
0.0217058
0
0.0227921
0.0382993
0
0
0.0151033
0.00984356
0
0
0.0391066
0
0
0
0.00248337
0
0.325148
0
0.466576
0
0
0.0338259
0.0148837
0.012917
0.0233526
0
0
0
0.0187203
0.0220148
0.0133914
0
0.0338276
0
0.0491453
0
0.0505571
0.0720558
0.0623831
0
0.0308916
0
0
0
0
0.00100985
0
0
0
0
0.0376391
0.0112056
0
0.0300422
0
0
0.0195327
0
0.0155765
0.0793245
0
0.0901363
0
0.00443876
0.0139621
0
0.2479
0
0.468407
0
0.011683
0.00467679
0
0.00492856
0
0
0.0246569
0.00143204
0.0260853
0
0.0444406
0
0
0
0
0.0927892
0.00872785
0
0
0.0999214
0.0125654
0.0235289
0.026045
0.0198759
0
0
0.00791211
0.0928597
0.0165179
0
0
0.0112201
0.0137695
0
0
0
0
0.00595641
0
0.0280854
0
0
0
0
0.0033911
0.00205652
0
0
0
0.468657
0
0
0.0384693
0.0305653
0.0310896
0.023073
0
0
0
0.0217683
0
0
0.055574
0
0
0
0
0.0937117
0.0914388
0
0
0.101954
0
0.0305024
0
0.0160945
0
0
0
0.0780772
0
0
0
0.0332431
0
0
0
0
0
0
0
0.00974584
0.0999857
0
0
0
0
0
0.0465732
0
0
0.465341
0.0357869
0
0
0
0
0
0.00552954
0
0.0205872
0.0312724
0
0
0
0.0232403
0
0.0513643
0.012129
0
0.0270342
0.0406894
0.013292
0.00373056
0.033235
0
0.0123273
0.0438877
0.0140584
0
0.0101177
0
0
0
0.0465478
0
0
0
0
0
0
0.0381531
0
0
0
0
0
0
0.0360492
0
0
0.022438
0.306596
0
0.467335
0
0.0475825
0.0341582
0.0342045
0.00503442
0.0119165
0.0161047
0
0
0.00851939
0
0
0.0321573
0
0.0591613
0
0.0179688
0.046594
0.10395
0
0
0.0455066
0.0204107
0.0559624
0
0.0347158
0
0.00102419
0
0
0.0855629
0.0475774
0
0.00667139
0
0.00871545
0
0
0
0
0.0131771
0
0.0270594
0.0170559
0
0
0
0.0377176
0
0
0
0.31528
0
0.465349
0.0586456
0
0
0.0424512
0
0
0.0239636
0
0.0405937
0.0535391
0.00838251
0.0367806
0
0.041436
0
0.0454133
0
0
0.0850999
0
0.0056975
0.00499381
0.0445521
0.00124032
0.0469824
0
0.0563443
0
0
0
0
0
0.0218087
0.0228356
0
0
0
0
0
0
0
0.0536076
0
0.0849577
0
0
0
0
0.0748835
0
0
0
0.307954
0
0.46633
0
0.00132326
0
0.0138891
0.0103067
0.018161
0.00686202
0
0
0
0.0125317
0.0446979
0.0220194
0.00160532
0.0585665
0
0
0.0205395
0.0308286
0
0.0999466
0
0.0795886
0
0
0.100091
0.00544707
0.0502638
0
0
0
0.0818321
0
0.0122138
0
0.00756817
0
0.0248039
0
0
0.0108066
0
0.0461306
0
0
0.03187
0
0
0
0.120549
0
0
0
0.303179
0
0.462869
0.0308029
0.00732414
0
0.0222506
0
0.00951787
0.0264748
0
0.0391438
0.0644853
0.0234793
0
0
0
0
0.0450784
0.0333347
0
0.0217105
0.0263608
0
0
0.000487127
0.03893
0
0.0195286
0
0
0.0258185
0.0226054
0
0
0.161083
0
0
0
0.00841343
0
0.0311599
0
0
0
0
0.0514222
0
0
0
0
0.0255396
0
0.0883539
0
0
0
0.282571
0
0.462552
0.0937239
0
0
0.0080079
0.0144771
0.0259258
0
0
0
0
0
0.028143
0.0111962
0.0130239
0
0.0102995
0
0.0347068
0
0
0.135121
0
0
0
0.0610812
0.0165999
0.051316
0.034207
0
0.0656977
0
0
0
0
0.0103782
0.00808178
0
0.023114
0
0.0248748
0.017236
0.0173667
0.0553649
0
0.0472451
0
0
0.0397858
0
0.00115822
0
0.0185763
0
0.0316369
0
0.218204
0
0.467259
0
0.000598744
0
0.00512812
0
0.0429192
0.0189266
0
0.0283336
0.0476779
0.062323
0
0.0347086
0.0110907
0
0
0.0112497
0
0.0418556
0.010318
0
0
0
0.0568991
0
0.00663619
0
0
0.0273623
0
0.0229145
0
0.0200617
0
0
0.0440272
0.0258683
0
0.0366902
0
0.0750572
0.0339601
0.0836166
0.0369264
0
0.0328068
0
0
0
0
0
0
0.0391209
0
0.0417259
0
0
0
0.465299
0
0.0156293
0
0.00998317
0.014772
0.017888
0
0
0
0
0
0.00289021
0
0.0288527
0
0.0351165
0
0.0850356
0
0.0147289
0.0139065
0
0
0.0122923
0.0994594
0
0.0729241
0.000948193
0.0052381
0
0
0.0188784
0
0.0110084
0.00744031
0.0161066
0
0.0412522
0
0.0465228
0
0.042111
0.0301234
0
0.0588351
0
0
0
0.0151357
0
0
0
0
0.0556032
0
0.0459743
0.0284133
0
0
0.46506
0.117224
0.0535914
0.00357468
0.0125981
0
0.0464884
0
0
0.00772415
0.0212366
0.0863702
0
0.100009
0.0053597
0.0623872
0
0.0382237
0
0.119411
0
0
0
0.0116834
0
0.019582
4.0265e-05
0
0.0270474
0.0683327
0.0834042
0
0
0.00913464
0
0.0362975
0
0.0114408
0.00773151
0.0521184
0
0.0475088
0.0133406
0.0261102
0.0401679
0
0.0398845
0
0
0.00778118
0.0445158
0
0
0
0
0.0360661
0
0.077373
0
0.28847
0
0.461364
0
0
0
0.0255511
0.00127257
0.00267187
0
0
0
0
0
0
0.0376003
0
0.0416015
0.0228439
0
0.0459586
0
0
0
0.0125974
0
0.0277567
0
0.0205752
0.00394672
0
0
0
0
0.0493763
0
0.0095014
0
0.0194183
0
0.0269165
0
0.0476743
0
0.0466185
0
0.00930097
0.051942
0
0
0
0
0.0167332
0
0
0
0
0
0.0440624
0
0.0574863
0
0.285121
0
0.462868
0
0
0.0129507
0.0278268
0.00557045
0.0258993
0
0
0
0
0.0494004
0.0377698
0.0820613
0
0.0117615
0
0.0594664
0.0157925
0.0999285
0
0
0
0.0201472
0
0.0541617
0
0.0190017
0
0.0019114
0
0
0
0.0423887
0
0.0219001
0
0.0468142
0
0.0263577
0
0.0614261
0
0.048756
0
0.0169117
0.0437203
0
0
0
0
0
0
0
0
0.018675
0
0.0627239
0
0.0460752
0
0.216335
0
0.462863
0.00918144
0.0270621
0
0
0.0312286
0.00358721
0.00199937
0.0128661
0
0
0
0
0.00136273
0
0.0110842
0
0.0231921
0.0248878
0
0
0
0.0618278
0
0.0193
0.0278236
0.0243919
0
0.0195923
0
0.0541377
0
0
0.0147333
0
0
0.0379265
0
0.0357376
0
0.0215067
0
0.0846099
0
0.0692988
0.0552609
0
0.0646744
0
0
0
0
0.00298812
0
0
0
0.0348104
0
0.0659272
0
0.0569193
0
0
0
0.464435
0
0
0.0150593
0.0428421
0.0910023
0
0
0
0
0
0.0387724
0
0.0093122
0
0.0152869
0
0
0.0258389
0.066523
0
0.0512562
0.00621935
0.0786815
0
0.0137114
0
0.0303839
0
0.0265964
0
0
0.00600912
0.0353862
0
0.0410018
0.014742
0.0482268
0
0.0488086
0
0.0178592
0
0.103983
0
0.0296814
0.0488338
0
0.0353069
0
0
0.00899091
0
0.00226053
0
0
0
0.0513476
0
0.0890328
0
0.0756755
0.06128
0.00117914
0
0.463366
0
0
0.0131943
0
0.01288
0.0137259
0.00610495
0.0291042
0
0.00393352
0
0
0.0733373
0
0.0971724
0
0.046878
0.0439366
0
0.0393155
0.0155419
0.0486363
0
0.021363
0
0.0167854
0
0.0117605
0
0.0381296
0
0.00577163
0
0.0551702
0
0.0411939
0
0.0517679
0
0.0317087
0
0.0376331
0
0.072365
0
0.0112922
0.0264125
0.00231489
0.00309752
0
0
0.0314403
0
0
0
0.0475768
0
0.0472935
0
0.10892
0
0.0923878
0.0385329
0.281666
0
0.463966
0
0
0.0268446
0
0
0
0
0.000717988
0
0
0.014066
0.010127
0
0
0.0887606
0
0.0999782
0.0532231
0.0200411
0
0
0
0
0
0
0
0.0262622
0
0.0280307
0
0.0618934
0
0.0652406
0
0.0660081
0
0.0178496
0
0.038666
0
0.0194226
0.00550461
0.0439477
0
0.0837423
0
0.0258207
0.0178428
0.0157695
0
0
0
0.00475696
0
0.0200866
0
0.0961798
0
0.068085
0
0.0890352
0
0.0297044
0
0.291785
0
0.463515
0
0.00499894
0.0274152
0.0240674
0.0763218
0.0128458
0
0.0259589
0
0.0140132
0
0
0
0.188607
0.0319552
0
0
0
0.0193056
0.0133414
0
0
0
0.0666312
0.0206793
0.0658822
0
0.0302137
0
0.058241
0
0.0356374
0
0.0531872
0
0.0599359
0
0.0201198
0.0054902
0.083014
0.0234176
0.0507762
0
0.0347702
0
0.0757429
0.00377253
0.0415584
0.0395479
0
0
0
0
0
0
0
0
0
0
0.115915
0
0.0920367
0.100077
0
0
0.295504
0
0.461382
0
0.00155165
0.00800246
0
0
0
0.00429881
0.00520731
0
0
0.00688389
0.0288388
0.0347835
0.0592798
0
0
0
0
0
0
0
0
0
0.0341437
0.0946033
0.0130765
0.0739033
0
0.0404214
0.0165995
0.0417722
0.0607466
0.0633432
0
0.0443243
0
0.061128
0
0.0581701
0
0.0170387
0.00185701
0.0333048
0.0232078
0.0628535
0
0.0924139
0.0242482
0.0401233
0.0567372
0
0
0
0.0362002
0.0716927
0
0.0275134
0
0
0
0.118903
0
0.0758424
0.0256999
0
0
0.267784
0
0.460015
0.0138537
0
0.0549386
0.0242962
0.056539
0
0
0.0170025
0
0.0112309
0
0
0
0
0
0
0
0.261493
0
0
0
0.0327785
0
0.00551968
0.0142768
0
0
0.00865525
0
0.054228
0.00375686
0.0339278
0
0.0506926
0
0.0217356
0
0.0744312
0.0438472
0.0674949
0.0290509
0.0782985
0.000933766
0.0396329
0
0.0521172
0
0.070492
0
0.0393309
0.0477704
0
0
0
0
0.114914
0
0.0148698
0
0.0368004
0
0.0823927
0.0140428
0
0.0991362
0
0
0.209569
0
0.464041
0
0
0
0
0
0
0.0253256
0.0115736
0
0.00299176
0
0.020927
0.0275013
0
0.0188482
0
0
0
0
0.0165288
0
0
0.0492253
0
0.034568
0.0316954
0
0.0367977
0
0.0328408
0.0483521
0
0
0.0169132
0.0836265
0.0441937
0.0116279
0
0.0689
0.041915
0.0075034
0.0482894
0.0212816
0
0.0421192
0
0.0822146
0
0.0912534
0.0275958
0.0205283
0.0482541
0
0
0.0091935
0
0
0
0
0
0.0346742
0
0.0566295
0.0602669
0
0.0818552
0
0
0
0
0.462143
0.0316448
0
0.0777312
0.0384478
0
0
0.000373045
0
0
0.00405697
0
0
0
0
0.0584468
0
0.0176786
0
0
0
0.019286
0.159373
0.0283499
0
0
0
0.0200892
0
0
0
0
0.0512535
0
0.0136825
0
0.0930986
0
0.0524125
0
0.0310358
0.0449458
0
0.0479945
0.0058277
0
0.0358466
0
0.0768856
0.00478769
0.0731898
0.02017
0.00837353
0.00223529
0
0
0.0287177
0.0131631
0.0115489
0.0208839
0
0
0.0720289
0
0.058247
0.0505113
0
0.0490609
0.0214612
0.0568246
0
0
0.459773
0
0.0217039
0
0.0275391
0.0131391
0.000404958
0.0380248
0.000722987
0
0.000360737
0
0.000954136
0.0299374
0.0351077
0.0481287
0
0.0841926
0
0.0347319
0.00327935
0.0719577
0.0373975
0
0
0.0282776
0.0279328
0
0
0
0
0
0
0.0606363
0.00703113
0.0255554
0
0.00862887
0.0182703
0.0107482
0.0120439
0.0298891
0.0699085
0
0.0497057
0.00172464
0
0.0426929
0
0.0702335
0.030779
0.0976569
0.0292256
0.0121784
0.000787331
0
0
0.0407279
0
0.0251611
0.0468477
0.0196396
0
0.0976474
0.0234634
0.0503083
0.0495072
0
0
0.0607488
0.03185
0.280824
0
0.459764
0.00402185
0
0
0.0119655
0
0
0.00737862
0
0
0.00218526
0
0
0
0
0
0
0.0149253
0
0
0.0155993
0.0242205
0.0671643
0.00750108
0.0115857
0
0
0.0478682
0
0
0
0
0.0133644
0.0444403
0.0394924
0.0487697
0
0.116983
0
0.105468
0.00858399
0
0.0137672
0.0871272
0
0.0624802
0.02039
0
0.0377915
0.000904573
0.0568194
0.0487171
0.0741253
0.054337
0.0120103
0.0226583
0
0
0.03693
0
0.0232553
0.0160611
0.0176418
0
0.0630121
0.00709599
0.0603033
0.00451736
0.0227369
0.00572491
0.0384014
0
0.285973
0
0.458729
0.0205166
0
0.0909022
0.0250571
0
0.0148568
0.041858
0.000397679
0
0
0
0
0.0290069
0.033451
0.078034
0.0142556
0
0
0
0.0457753
0.0295103
0
0
0
0
0.00223831
0.0117929
0
0.0716711
0
0
0
0
0.00778553
0.0110603
0.0333411
0.0786029
0.0204385
0.00524437
0
4.84071e-05
0.019202
4.64344e-05
0.0992022
0
0.0264194
0.0264255
0
0.0641966
0
0.0526312
0.0501655
0.0732795
0.0153795
0.000321339
0.00615551
0
0
0.0616617
0
0.0389185
0.0162409
0.0671046
0
0.0807678
0
0.0759667
0
0.0423249
0.0571609
0
0
0.224894
0
0.461454
0
0.00514113
0.0386619
0.00187758
0
0.00834614
0.00269637
0
0
0.0025014
0
0
0.0736618
0
0
0
0
0.185909
0
0.147163
0
0.0482319
0.000393914
0
0
0.0151638
0
0
0
0.002395
0.00677896
0.0193118
0
0
0.0270435
0
0
0.0106729
0.0464432
0
0.0510348
0.0119432
0
0
0.0844733
0.00750103
0.0276425
0
0.0235096
0.0444852
0.0354935
0.0532748
0.0339471
0.0569412
0.0631139
0
0.0166487
0
0
0.0362078
0
0.0518746
0
0.0420598
0
0.0910544
0
0.100338
0
0.0364329
0.0773303
0
0
0
0
0.460861
0
0
0
0.0631364
0.0297058
0.073208
0.0405837
0
0
0
0
0.000277131
0
0
0.10002
0.0258897
0.0718464
0.0572644
0
0.0501344
0
0
0.0524309
0.0384413
0.0661043
0
0.0481716
0
0
0
0
0
0
0
0.00691572
0.0405023
0.00663106
0
0.014436
0.0013363
0
0.049056
0
0.0473044
0
0.0461673
0.00547937
0.0588273
0
0.0175783
0.0777335
0
0.0609691
0.0713894
0.0416343
0.0526529
0
0
0.0141559
0
0.0455503
0
0.0385112
0
0.0428065
0
0.118501
0
0.111223
0.0354419
0.020814
0.0835994
0
0.0812444
0.00530302
0
0.459
0
0
0
0
0
0
0
0
0
0
0
0
0
0.166433
0
0
0
0
0.0252642
0
0.0511257
0.0295465
0
0
0.0491607
0.00515704
0.0220674
0.0240698
0.000240396
0.0199055
0
0
0
0
0
0
0.0368438
0
0
0.0274273
0
0.0295287
0
0
0
0.000174191
0.000362704
0.0150843
0.00674453
0
0.0414842
0.0166715
0.0431592
0.0379144
0.0600258
0.0180108
0.0934557
0
0
0.0286235
0
0.0682124
0
0.0358454
0
0.0664731
0
0.0974943
0.0264905
0.0926865
0.0503821
0
0.084449
0
0.0184989
0.275239
0
0.458934
0.0200475
0
0.0307116
0.0359426
0
0.00110655
0.0347604
0
0
0
0
0
0.0881575
0
0
0
0.09359
0.0165063
0
0.0234079
0.0471035
0.021996
0
0.00711148
0
0
0
0.0520831
0.00233171
0
0
0
0.0510788
0.0295768
0.100574
0
0
0
0
0.00981115
0.0306157
0.0404135
0.0109448
0
0
0.0434357
0.01702
0
0.0351948
0.0151213
0
0.0586059
0.0128423
0.00184715
0.0370187
0.0936132
0
0.0976808
0
0.0137505
0.0358665
0
0.0536081
0.002728
0.0437092
0
0.0717601
0
0.102886
0.0338442
0.0792949
0.0788226
0
0.0978726
0.025855
0
0.283191
0
0.457152
0
0.00496796
0
0
0
0.0615133
0.00591796
0.0122416
0
0
0.00838151
0
0.0241107
0
0.0484234
0.0430514
0
0
0.195623
0.164611
0
0.00583425
0.0392655
0.0553455
0.0137726
0.0228223
0.0546747
0.0754412
0.0156646
0.0401032
0
0
0
0.0133059
0
0
0
0
0.0191199
0
0.0368019
0.00214004
0
0.00464004
0
0
0.0121274
0.0473519
0
0.0286391
0
0
0.0422537
0.0560178
0.0313957
0.0178088
0.0912139
0
0.0921117
0
0.00193175
0.0544843
0
0.0551445
0.011726
0.042214
0
0.0868788
0
0.0880487
0.0662279
0.0356516
0.0931759
0
0.00268738
0.155642
0
0.268494
0
0.456291
0.0301161
0.00903101
0
0.0140487
0.00217342
0.0418334
0.0263005
0
0
0
0.00219192
0
0.0427897
0
0
0.00825358
0.0388887
0
0
0
0.0612044
0
0.0289273
0
0.0140448
0.0388263
0.0497087
0.0456848
0.00364557
0
0
0.0278632
0
0.0337777
0.00674013
0
0
0
0.0703225
0
0.002572
0
0.0249618
0.0482125
0
0
0
0.0107637
0.0526083
0
0.0225201
0.0271995
0
0.0794352
0
0.0687711
0.0101554
0.0817559
0
0.0593905
0
0
0.0363093
0.0312975
0.0471807
0
0.0402846
0
0.0732485
0
0.0820032
0.0475025
0
0.0991564
0
0
0.106793
0
0.256812
0
0.455203
0.00470199
0.0410305
0.00343499
0
0.047722
0
0.0016438
0.0197581
0
0
0.00347799
0
0.100001
0
0
0.158805
0
0.102343
0
0.158084
0
0
0.023672
0.0999769
0
0
0.0127205
0
0.071452
0
0.00832094
0
0.00519405
0.0289668
0
0
0
0.0210351
0
0
0
0.0434799
0
0
0
0.0759505
0
0
0.0376768
0.0403272
0
0.0226504
0.0728394
0
0.0683678
0
0.0407912
0.029408
0.0847937
0
0.0584997
0
0
0.0682317
0.0153472
0.0442947
0
0.0600102
0
0.0746928
0.0388088
0.051139
0.0922351
0
0.0988128
0
0
0.0347743
0
0.249833
0
0.452311
0.00945732
0
0
0
0
0.0231047
0.013937
0
0
0
0.0209653
0
0
0
0
0.0837425
0
0
0
0.0998723
0
0
0
0.0396612
0
0
0
0
0.0268629
0.02866
0.0298311
0
0.0169019
0
0.000189176
0
0
0.0577099
0
0
0
0
0
0
0.00392853
0
0.0240292
0
0.0036749
0
0.0547661
0
0
0.0271449
0
0.0724318
0
0.0590024
0.0217952
0.0951694
0
0.0600244
0
0
0.0499577
0
0.0459982
0
0.0656323
0
0.0446057
0.0606368
0.0281579
0.0908194
0
0.100655
0
0
0.0458829
0
0.231486
0
0.452785
0.0439167
0.0585934
0.0413278
0.0135338
0
0.0148143
0.0119832
0.0222275
0
0
0.00487624
0.0079202
0
0.107205
0
0.125839
0.074305
0
0
0
0
0
0.047711
0.0530333
0
0.0248079
0.0213219
0
0.0248574
0.0496033
0.0127421
0.122974
0
0.00616365
0.00274859
0
0
0
0
0.0413137
0.0477367
0.0121015
0
0
0
0
0.0392234
0
0
0
0
0.0376187
0
0.00879757
0.0197356
0
0.0518445
0
0.0137321
0
0.0960642
0
0.0109335
0.0223333
0
0.050481
0
0.0543039
0
0.0931212
0
0.0581454
0.0288646
0
0.0775956
0
0.0811831
0
0
0.0564504
0
0.178148
0
0.454771
0
0.018199
0
0
0.0274149
0.0307317
0.00839562
0
0
0
0.00944523
0
0.0638283
0.0188371
0
0.0765735
0
0.0257061
0.0594768
0
0
0.005073
0
0.00315307
0.00764739
0.00241567
0.0414353
0.0365369
0
0.0471913
0.0185199
0.0711164
0
0.0316925
0.0154896
0
0
0
0.0368546
0
0.0996874
0.0569642
0
0
0.0432824
0.0244905
0.00867802
0
0.0107218
0.0296543
0.0108354
0
0.0615152
0
0.0264336
0.00215613
0
0.0673758
0.0137257
0.0673433
0
0.0847606
0
0
0.0212423
0
0.048531
0
0.0632716
0
0.0987916
0
0.0418777
0.0313841
0
0.0278756
0
0.0264343
0.0123573
0
0.0423547
0
0
0
0.451982
0.045115
0.0679392
0.0284165
0.00895648
0.0508695
0
0
0.0258651
0
0
0
0
0.00775466
0
0
0.045822
0
0.0380279
0
0.0404474
0
0.0138795
0.0317248
0
0
0.0533513
0.0197837
0.00653963
0.0480074
0.0303722
0.0150822
0.0236819
0
0.0386528
0.0255479
0.00642249
0
0.00205259
0.00190752
0
0.0394814
0
0.0135766
0.0506512
0.0453013
0.00284992
0
0
0.0286379
0.0204243
0
0.0233742
0
0.0613812
0
0.0080157
0.00381538
0.00186007
0.0347764
0
0.0137794
0
0.0923227
0
0
0.044179
0
0.0494306
0
0.08592
0
0.0899661
0.0152096
0.0568664
0.0303917
0.00792515
0.0231777
0
0
0.0549177
0
0.049704
0
0
0
0.456804
0
0
0
0
0
0
0.0124472
0.0140818
0
0
0.0183146
0
0.0864512
0
0.0998633
0
0.0127009
0.0160854
0.0188775
0
0.0630853
0
0
0.0250595
0.0321552
0
0.00155748
0
0
0.0226098
0.0139773
0.00995668
0.0491359
0
0.052853
0.0501839
0
0
0.0076535
0.0445844
0.0576788
0.0109515
0.0189799
0.0262365
0.042032
0.0410755
0.0525291
0
0.0128486
0.0350497
0
0
0.027599
0
0.0612606
0.00359245
0.0526153
0
0.0107631
0.059692
0
0.0282546
0
0.00767061
0
0
0.0458539
0
0.0615205
0.00936313
0.0943107
0
0.0793491
0.0333307
0.0432022
0.0626527
0.0287012
0.0581289
0
0
0.0763347
0
0.0623525
0
0
0
0.455541
0.0444079
0
0
0.0215562
0
0.0262618
0.00120674
0.0270822
0
0
0
0
0
0
0.0424967
0
0.0228922
0
0
0.0363923
0
0.0530896
0.0727024
0.0425599
0
0
0
0
0.0327626
0.0137036
0.0231017
0.00395634
0
0.00716798
0.00901319
0.0254805
0.0336258
0.0139797
0.00426975
0.0048203
0.037377
0.0204373
0.00322769
0.0193911
0
0
0
0
0.011104
0.0226128
0.0241291
0.0117348
0.0241112
0.0378539
0.0175391
0.0561938
0
0.0462027
0.00688555
0.0234279
0
0.0137289
0.0641433
0
0.0586902
0
0.00689575
0.0923472
0
0.0605728
0
0.0957562
0
0.0661694
0.0233765
0.0383653
0.0142027
0.0125273
0.0213717
0
0
0.10008
0
0.0592991
0
0.0078658
0
0.454815
0
0.0835739
0.0763247
0
0.0243922
0.0447623
0.0132002
0.0215259
0
0
0.0262915
0
0.0503331
0
0.00666641
0
0
0.138824
0.0291512
0
0.0545146
0
0
0.0270381
0.0386495
0.011641
0.0317624
0.0254118
0
0.0501823
0.0422628
0.000466362
0.057108
0.0340187
0
0.0581002
0.0206645
0.0221678
0
0
0
0
0
0
0
0
0.0928225
0
0
0
0
0.027041
0.0372736
0
0.0533286
0
0.0659999
0
0.03456
0.0133312
0.0495651
0
0
0
0
0.00720006
0
0
0.138708
0
0.0855423
0
0.0849597
0.0429724
0.0632967
0.0376273
0.0335886
0.0168033
0
0
0
0
0.0873437
0
0.0677799
0
0.251036
0
0.45322
0
0
0
0.0102707
0.0466735
0
0
0.021783
0
0
0
0
0
0
0.0173388
0
0.0379321
0
0
0.0447496
0
0.00119444
0
0
0
0
0
0.0108913
0.0198063
0
0.0352346
0.0435366
0
0.0396434
0.0459984
0.0373521
0.0250182
0
0.0477213
0
0
0.00131912
0
0.00188035
0.0388351
0.0621497
0
0
0.0121952
0
0.00728263
0.0148665
0
0
0
0.0465349
0.0165118
0.0522207
0.024066
0.0510556
0
0.0503972
0
0.0290871
0.0640483
0
0.0251885
0
0
0.0991575
0
0.111126
0
0.0735364
0.0389521
0.0598309
0.0269837
0.0386992
0.0108595
0
0
0.0180306
0
0.0651788
0
0.0969718
0
0.250784
0
0.451923
0
0.0107675
0
0
0
0
0.0127218
0.0238679
0.00272066
0.00330049
0.0207045
0
0.000416589
0
0
0
0
0.024568
0
0.0156493
0.0155217
0
0.0263415
0.0236955
0.0858424
0
0
0.097928
0.010278
0.0352705
0.0134181
0
0.0441028
0
0.0400148
0.0340818
0
0
0.027891
0.00360219
0
0.0180107
0.0561131
0.0541958
0.0271918
0
0.0155056
0
0.012545
0
0
0.00406463
0
0
0
0
0.0462392
0.0469843
0
0
0.0487261
0
0.0425186
0
0.039308
0.032337
0
0.073027
0.0383532
0
0.0600455
0
0.110585
0.0032819
0.0688425
0.033362
0.0654447
0.0263864
0.0489311
0
0
0
0.0450596
0
0.073057
0
0.120547
0
0.245159
0
0.452431
0
0.00842847
0
0.00763413
0.0273964
0.00982988
0
0.022127
0
0
0
0
0
0
0.0512143
0
0
0.0120709
0.0170253
0
0
0.050896
0
0.0299823
0
0
0.0631448
0
0
0
0.121348
0.0528924
0
0.055734
0
0.0126646
0.065763
0.00472128
0.00787991
0
0
0
0.0370506
0.0439014
0.0245573
0
0.0158006
0.00515092
0
0.00980544
0
0
0.0222827
0.00391044
0
0
0.0056934
0.0864511
0.0599608
0
0.021135
0.0333025
0
0.0574203
0.0137196
0
0.0186314
0
0
0.0600893
0
0.0681751
0
0.092884
0.0167582
0.0678551
0.0498189
0.0592714
0.0436235
0.049593
0.0334166
0
0
0.0744871
0
0.0857637
0
0.102069
0
0.231807
0
0.449621
0.106509
0
0
0.0224398
0
0.0118165
0.0133441
0.0199582
0.0111558
0.00424369
0.0167145
0.0138312
0.00354662
0
0
0.137914
0.0141944
0
1.60154e-05
0.0946186
0.0569399
0
0
0
0.0997465
0.0558186
0
0.0360502
0
0
0.000447014
0.000631962
0
0.0202823
0.0422119
0.0305794
0
0.0271742
0.0305798
0.00462887
0.0257227
0.0566042
0
0.0546876
0.0403863
0
0.0216429
0
0
0
0
0.00249199
0
0
0.0267311
0
0.0431654
0.0313195
0.00507135
0.0515076
0.0166557
0.0381927
0.0571454
0
0.0491273
0.0369686
0.0120423
0.0588894
0
0
0.0729059
0
0.0824598
0.00966723
0.080292
0.0183234
0.0714298
0.0501085
0.0597812
0.0329659
0.0510477
0.0406747
0.000450982
0
0.0979465
0
0.100136
0
0.0773791
0
0.167295
0
0.452135
0
0.0256428
0
0.0101333
0
0.0081771
0
0.0200603
0
0
0
0
0
0
0.0660418
0
0
0
0.0855285
0
0.00524526
0
0
0.0567089
0
0
0.0858709
0.028955
0
0.00719466
0
0.0418671
0.038115
0.00261416
0
0.0511492
0.0706737
0
0.0515535
0.0177376
0
0.104686
0
0
0.0486669
0.0959061
0
0.027309
0
0
0
0.0207156
0
0.0210373
0
0.00648118
0.0756716
0.0435185
0.0153518
0
0.0530042
0.0226205
0.0247024
0.0267569
0
0.0595141
0.058514
0
0
0
0
0.0668484
0
0.0842731
0.00768195
0.0760803
0.0216222
0.0748352
0.0495145
0.0558845
0.0443661
0.0588541
0.0339597
0
0
0.0829233
0
0.103668
0
0.0790814
0
0
0
0.449633
0.000825152
0
0
0.0276907
0.0148083
0
0
0.0201268
0.0203724
0
0.0191277
0.0148356
0
0.020542
0
0
0
0.0236502
0
0
0
0
0
0.100039
0.0123
0.132412
0
0.0184085
0.042037
0.0517902
0
0
0.0441574
0
0
0
0
0.0394351
0.00673688
0.0440785
0.0195127
0
0
0
0.02035
0.0392909
0
0
0.00204734
0.02904
0.00292
0.034882
0
0
0
0
0
0
0
0.0553418
0.0276273
0.0389062
0.00145071
0.0392628
0.0332727
0.0486354
0.0334189
0.065622
0
0.0173951
0
0
0.0678352
0
0.0743881
0
0.077977
0.0424195
0.0679652
0.0502478
0.0555668
0.0500674
0.0553005
0.0410789
0
0.0108652
0.0754417
0
0.095486
0.0400426
0.0940211
0.0724524
0.0146417
0
0.449276
0.0248668
0.0099873
0
0.0152125
0.0113916
0.0103186
0
0.0217307
0
0
0
0
0
0
0
0.068031
0
0
0
0
0
0
0.0128633
0.150404
0
0
0
0.0930247
0
0.0305177
0.103721
0.0125132
0
0.0646307
0
0.0438704
0
0.00272979
0.0703476
0.0455006
0.0563723
0.0806932
0
0.0175495
0
0.0133179
0
0
0.0149654
0.0960864
0
0.0295061
0.0215056
0.0409125
0
0.0971872
0
0.00573431
0
0.0503706
0.0157499
0.0354763
0.0577263
0
0.0624556
0
0.0406619
0.0131066
0.0398933
0
0.0438383
0
0
0.079584
0.00764396
0.0702353
0.0116576
0.0708063
0.0445469
0.0656088
0.0493723
0.0547552
0.0488898
0.019333
0.0812135
0
0.0527694
0.0800326
0
0.0879895
0.0560523
0.11033
0.0277115
0.228291
0
0.447702
0.0138567
0
0
0.0315414
0
0
0.0103133
0.0237988
0.0162624
0.00287475
0.0204416
0.00567337
0
0.034547
0
0.0510982
0
0.0100402
0.0645202
0.0309682
0.0217614
0.0153621
0.00815726
0
0.0507656
0
0.0469198
0
0.0332445
0
0
0
0
0
0.0383374
0
0.0265431
0.0330759
0
0
0.0544586
0
0.0193924
0
0.0575239
0
0
0
0.0329148
0.0504652
0
0
0
0.0213678
0
0.0159744
0
0
0.100032
0.0234756
0
0
0
0.0363008
0
0.0374972
0.0320691
0.0430862
0
0.073861
0
0.0295533
0
0
0.0881298
0.00667809
0.0672811
0.042019
0.0679121
0.0490698
0.0641026
0.0530033
0.0579334
0.0553729
0
0.0841206
0
0.0491881
0.0902049
0.00743792
0.083228
0.0599467
0.0214603
0
0.199442
0
0.448415
0.00901691
0.0420995
0
0.0127898
0
0.0327226
0