/*--------------------------------*- C++ -*----------------------------------*\
| =========                 |                                                 |
| \\      /  F ield         | OpenFOAM: The Open Source CFD Toolbox           |
|  \\    /   O peration     | Version:  2206                                  |
|   \\  /    A nd           | Website:  www.openfoam.com                      |
|    \\/     M anipulation  |                                                 |
\*---------------------------------------------------------------------------*/
FoamFile
{
    version     2.0;
    format      ascii;
    arch        "LSB;label=32;scalar=64";
    class       volScalarField;
    location    "180";
    object      nut;
}
// * * * * * * * * * * * * * * * * * * * * * * * * * * * * * * * * * * * * * //

dimensions      [0 2 -1 0 0 0 0];

internalField   nonuniform List<scalar> 
93840
(
2.90854e-07
4.69838e-10
2.87611e-07
5.59688e-08
5.02821e-10
2.40956e-07
7.47519e-09
4.00164e-08
1.97443e-09
1.80175e-07
5.41789e-08
1.7531e-08
3.94251e-08
6.31587e-09
1.61839e-07
2.47466e-08
3.55151e-08
1.53518e-08
4.50179e-08
6.68346e-09
1.30211e-07
3.44586e-08
2.65515e-08
3.46344e-08
1.17984e-08
3.65012e-08
8.40364e-09
1.58811e-07
2.51144e-08
3.45726e-08
2.5461e-08
3.63996e-08
1.45656e-08
4.1015e-08
8.12615e-09
1.36179e-07
3.40089e-08
2.46325e-08
3.54628e-08
2.4054e-08
3.17551e-08
1.92557e-08
3.18354e-08
8.01279e-09
1.5896e-07
2.61085e-08
3.81895e-08
2.63902e-08
3.25788e-08
2.50389e-08
3.01422e-08
2.00101e-08
3.07332e-08
8.08264e-09
1.43357e-07
3.32439e-08
2.71769e-08
3.53254e-08
2.59838e-08
2.95904e-08
2.60172e-08
2.65776e-08
2.27982e-08
3.04619e-08
8.85258e-09
1.61042e-07
2.57417e-08
3.45598e-08
2.68471e-08
3.35728e-08
2.63506e-08
2.92642e-08
2.54561e-08
2.91003e-08
2.12948e-08
2.81898e-08
8.75246e-09
1.42242e-07
3.21488e-08
2.66828e-08
3.37338e-08
2.83255e-08
3.14511e-08
2.91261e-08
3.13777e-08
2.53738e-08
2.77372e-08
2.30704e-08
2.86446e-08
8.60215e-09
1.53419e-07
2.55037e-08
3.26316e-08
2.68934e-08
3.12599e-08
2.85927e-08
3.12092e-08
2.75908e-08
2.94043e-08
2.53584e-08
2.8812e-08
2.26351e-08
2.97879e-08
8.76576e-09
1.46039e-07
3.19347e-08
2.62618e-08
3.28603e-08
2.73261e-08
3.10461e-08
2.72011e-08
2.99279e-08
2.7289e-08
3.19904e-08
2.60317e-08
2.78563e-08
2.25647e-08
2.97438e-08
8.82955e-09
1.5284e-07
2.5863e-08
3.21461e-08
2.68419e-08
3.01733e-08
2.74581e-08
2.97352e-08
2.83607e-08
3.27325e-08
2.75097e-08
2.94001e-08
2.44658e-08
2.93509e-08
2.24424e-08
2.85811e-08
8.7994e-09
1.45388e-07
3.2482e-08
2.63976e-08
3.27681e-08
2.651e-08
3.03649e-08
2.60893e-08
3.00248e-08
2.67085e-08
3.1429e-08
2.71439e-08
3.17416e-08
2.61127e-08
2.78705e-08
2.30317e-08
2.93011e-08
8.7803e-09
1.49951e-07
2.63937e-08
3.25239e-08
2.71107e-08
3.02558e-08
2.63985e-08
2.87708e-08
2.77275e-08
3.14571e-08
2.71038e-08
3.0327e-08
2.68664e-08
2.95835e-08
2.50436e-08
2.88294e-08
2.2783e-08
2.96399e-08
9.05082e-09
1.44595e-07
3.20797e-08
2.72363e-08
3.18475e-08
2.68339e-08
3.08623e-08
2.71508e-08
2.97471e-08
2.6034e-08
3.05618e-08
2.74015e-08
3.02612e-08
2.71429e-08
3.17261e-08
2.65758e-08
2.7891e-08
2.25614e-08
2.95295e-08
9.11406e-09
1.48176e-07
2.64444e-08
3.15825e-08
2.73786e-08
3.06369e-08
2.7484e-08
2.88249e-08
2.67623e-08
3.08074e-08
2.66722e-08
2.98234e-08
2.60311e-08
3.0331e-08
2.71847e-08
3.08988e-08
2.51287e-08
2.82155e-08
2.29957e-08
2.88796e-08
9.26228e-09
1.43187e-07
3.22073e-08
2.70812e-08
3.20377e-08
2.79707e-08
3.0303e-08
2.66368e-08
2.93387e-08
2.63718e-08
3.16828e-08
2.72361e-08
2.94888e-08
2.70282e-08
3.15463e-08
2.7211e-08
2.91892e-08
2.70831e-08
2.77032e-08
2.32942e-08
2.95157e-08
9.15157e-09
1.47157e-07
2.65093e-08
3.25556e-08
2.78608e-08
3.06327e-08
2.78942e-08
2.94448e-08
2.73531e-08
3.02587e-08
2.53896e-08
2.96588e-08
2.64566e-08
3.03582e-08
2.67691e-08
3.02023e-08
2.77917e-08
2.99305e-08
2.60976e-08
2.82334e-08
2.27987e-08
2.96146e-08
9.23652e-09
1.43652e-07
3.29965e-08
2.76677e-08
3.27942e-08
2.88704e-08
3.0912e-08
2.72844e-08
2.91329e-08
2.48608e-08
3.02812e-08
2.72738e-08
3.06252e-08
2.62204e-08
2.97181e-08
2.7353e-08
3.02895e-08
2.79279e-08
3.08956e-08
2.59908e-08
2.81445e-08
2.33065e-08
2.97567e-08
9.43121e-09
1.47743e-07
2.71049e-08
3.32674e-08
2.9671e-08
3.17528e-08
2.72653e-08
2.91446e-08
2.74003e-08
3.15835e-08
2.63191e-08
2.96649e-08
2.60617e-08
2.99777e-08
2.6948e-08
3.02631e-08
2.70814e-08
3.02239e-08
2.6808e-08
3.0541e-08
2.60545e-08
2.85268e-08
2.29044e-08
2.94113e-08
9.49762e-09
1.46875e-07
3.30633e-08
2.8094e-08
3.25529e-08
2.78035e-08
3.14541e-08
2.86263e-08
3.06309e-08
2.52799e-08
3.16136e-08
2.7237e-08
3.02454e-08
2.59479e-08
3.05225e-08
2.681e-08
3.01321e-08
2.69508e-08
3.0901e-08
2.73995e-08
3.06038e-08
2.60354e-08
2.81916e-08
2.34441e-08
2.90531e-08
9.49944e-09
1.52053e-07
2.7332e-08
3.30338e-08
2.88375e-08
3.22591e-08
2.83329e-08
2.93657e-08
2.71114e-08
3.09046e-08
2.78646e-08
3.13862e-08
2.76225e-08
3.03762e-08
2.62898e-08
2.99173e-08
2.69267e-08
3.03668e-08
2.70275e-08
3.03315e-08
2.65407e-08
3.05439e-08
2.62855e-08
2.86383e-08
2.31156e-08
2.89488e-08
9.05158e-09
1.3548e-07
3.23975e-08
2.76876e-08
3.22076e-08
2.78442e-08
3.12303e-08
2.873e-08
3.10977e-08
2.63738e-08
3.10942e-08
2.71071e-08
3.0411e-08
2.73571e-08
3.10476e-08
2.69993e-08
3.07473e-08
2.75097e-08
3.02982e-08
2.72333e-08
3.11522e-08
2.80977e-08
2.98259e-08
2.68324e-08
2.78169e-08
2.35572e-08
2.95299e-08
9.60396e-09
1.45188e-07
2.71199e-08
3.29409e-08
2.79486e-08
3.22254e-08
2.89602e-08
2.9338e-08
2.68785e-08
3.03318e-08
2.77504e-08
3.03076e-08
2.77093e-08
3.06894e-08
2.73375e-08
3.05567e-08
2.71607e-08
2.9999e-08
2.72782e-08
3.01777e-08
2.77919e-08
3.0081e-08
2.76011e-08
2.99403e-08
2.67519e-08
2.81787e-08
2.32901e-08
2.96695e-08
1.01952e-08
1.40757e-07
3.16898e-08
2.7855e-08
3.26582e-08
2.83052e-08
3.06749e-08
2.84733e-08
3.13031e-08
2.72815e-08
3.06584e-08
2.68342e-08
3.08341e-08
2.74438e-08
3.04677e-08
2.69218e-08
3.09578e-08
2.75163e-08
3.02418e-08
2.77032e-08
2.99961e-08
2.7116e-08
3.11645e-08
2.86401e-08
2.97238e-08
2.68464e-08
2.73166e-08
2.347e-08
2.95623e-08
9.77241e-09
1.43969e-07
2.64365e-08
3.2229e-08
2.80469e-08
3.17267e-08
2.90385e-08
2.97494e-08
2.663e-08
2.93935e-08
2.66953e-08
3.04651e-08
2.74725e-08
3.0331e-08
2.76393e-08
3.06599e-08
2.74566e-08
3.01463e-08
2.72459e-08
2.99255e-08
2.71374e-08
3.0273e-08
2.77947e-08
3.04009e-08
2.80897e-08
3.01167e-08
2.61994e-08
2.80702e-08
2.32031e-08
2.99479e-08
1.01171e-08
1.40357e-07
3.19031e-08
2.73552e-08
3.3087e-08
2.81952e-08
3.03516e-08
2.79266e-08
3.07043e-08
2.71648e-08
3.1652e-08
2.75681e-08
3.08143e-08
2.72006e-08
3.08444e-08
2.79713e-08
3.05268e-08
2.66543e-08
3.07011e-08
2.78975e-08
3.00479e-08
2.80435e-08
3.04065e-08
2.76453e-08
3.04744e-08
2.82143e-08
2.9411e-08
2.65953e-08
2.80582e-08
2.37676e-08
2.92415e-08
1.02272e-08
1.42257e-07
2.61703e-08
3.19352e-08
2.76852e-08
3.13056e-08
2.88265e-08
2.97142e-08
2.63874e-08
2.84012e-08
2.65668e-08
2.88713e-08
2.72896e-08
3.02159e-08
2.71748e-08
3.07906e-08
2.79552e-08
3.0427e-08
2.75159e-08
2.95001e-08
2.67078e-08
2.95087e-08
2.7067e-08
3.00492e-08
2.8165e-08
3.00453e-08
2.83969e-08
2.94459e-08
2.62049e-08
2.87239e-08
2.39272e-08
2.92231e-08
1.0209e-08
1.39495e-07
3.1338e-08
2.71597e-08
3.34201e-08
2.79337e-08
3.00271e-08
2.66824e-08
3.00842e-08
2.67988e-08
3.06306e-08
2.7327e-08
3.08392e-08
2.68458e-08
3.02919e-08
2.59609e-08
3.07557e-08
2.72614e-08
3.05126e-08
2.73093e-08
3.09228e-08
2.81109e-08
2.99238e-08
2.7587e-08
3.02225e-08
2.79844e-08
3.01066e-08
2.76482e-08
2.99793e-08
2.61265e-08
2.81218e-08
2.36785e-08
2.97292e-08
1.02385e-08
1.40867e-07
2.59458e-08
3.13465e-08
2.86097e-08
3.13361e-08
2.85102e-08
2.92928e-08
2.61238e-08
2.87034e-08
2.61747e-08
2.9221e-08
2.67241e-08
2.93371e-08
2.72858e-08
3.04493e-08
2.8203e-08
3.05585e-08
2.76325e-08
3.02271e-08
2.7511e-08
2.97283e-08
2.66503e-08
2.97427e-08
2.71576e-08
2.97328e-08
2.77257e-08
3.07652e-08
2.80561e-08
3.07556e-08
2.6547e-08
2.83512e-08
2.36773e-08
2.99329e-08
1.05688e-08
1.39619e-07
3.14026e-08
2.68497e-08
3.29843e-08
2.71531e-08
2.96902e-08
2.67524e-08
2.975e-08
2.56413e-08
3.03214e-08
2.71287e-08
3.05976e-08
2.72533e-08
3.09405e-08
2.58752e-08
3.08034e-08
2.79656e-08
3.08692e-08
2.79358e-08
3.01814e-08
2.69185e-08
3.02204e-08
2.73469e-08
3.02234e-08
2.73489e-08
3.04974e-08
2.78898e-08
3.04642e-08
2.80187e-08
3.0668e-08
2.59146e-08
2.91489e-08
2.38386e-08
2.96893e-08
9.979e-09
1.3969e-07
2.61092e-08
3.15353e-08
2.89377e-08
3.0878e-08
2.8548e-08
2.90531e-08
2.59357e-08
2.90269e-08
2.70207e-08
2.97492e-08
2.61466e-08
2.95586e-08
2.73198e-08
2.91394e-08
2.84165e-08
2.98316e-08
2.76685e-08
3.076e-08
2.74335e-08
3.0641e-08
2.74627e-08
2.99397e-08
2.67193e-08
2.97739e-08
2.72296e-08
2.98782e-08
2.75714e-08
3.03499e-08
2.76059e-08
3.07037e-08
2.61471e-08
2.92958e-08
2.34662e-08
3.06811e-08
1.01337e-08
1.38162e-07
3.13041e-08
2.70691e-08
3.27129e-08
2.7408e-08
2.98666e-08
2.63649e-08
2.98947e-08
2.56009e-08
2.97346e-08
2.67131e-08
2.99262e-08
2.72355e-08
3.05828e-08
2.7172e-08
3.14772e-08
2.73123e-08
3.04913e-08
2.774e-08
3.12612e-08
2.78578e-08
3.04721e-08
2.73758e-08
3.03143e-08
2.75991e-08
2.98036e-08
2.76322e-08
3.10855e-08
2.75601e-08
3.02316e-08
2.76324e-08
3.06273e-08
2.56313e-08
2.95797e-08
2.35516e-08
3.08967e-08
1.02711e-08
1.40384e-07
2.6378e-08
3.11991e-08
2.90703e-08
3.11313e-08
2.86403e-08
2.94165e-08
2.60879e-08
2.93547e-08
2.74882e-08
2.95527e-08
2.62777e-08
3.04588e-08
2.64259e-08
2.90302e-08
2.73032e-08
2.95375e-08
2.78944e-08
3.05959e-08
2.77543e-08
3.08607e-08
2.75085e-08
3.02161e-08
2.68014e-08
3.00314e-08
2.67072e-08
3.01827e-08
2.7223e-08
2.9874e-08
2.7813e-08
3.04303e-08
2.7456e-08
3.00642e-08
2.60119e-08
2.94743e-08
2.33267e-08
3.04746e-08
1.03122e-08
1.3756e-07
3.16105e-08
2.71124e-08
3.23177e-08
2.78354e-08
3.03493e-08
2.64964e-08
3.07845e-08
2.63389e-08
2.94664e-08
2.67298e-08
2.9527e-08
2.71542e-08
3.02463e-08
2.74086e-08
3.07292e-08
2.72991e-08
3.00288e-08
2.68908e-08
3.04229e-08
2.80856e-08
3.10359e-08
2.81103e-08
3.06346e-08
2.70471e-08
2.98471e-08
2.74325e-08
3.01271e-08
2.74625e-08
3.08333e-08
2.76069e-08
3.05904e-08
2.7758e-08
3.0569e-08
2.53339e-08
2.97476e-08
2.37273e-08
3.09399e-08
1.06477e-08
1.38634e-07
2.73605e-08
3.13744e-08
2.85442e-08
3.14239e-08
2.9295e-08
3.00333e-08
2.70484e-08
2.96491e-08
2.78061e-08
2.9875e-08
2.77739e-08
3.00652e-08
2.65674e-08
2.98165e-08
2.62428e-08
2.93383e-08
2.77092e-08
2.96051e-08
2.79615e-08
3.06528e-08
2.75786e-08
3.10813e-08
2.75472e-08
3.00268e-08
2.70236e-08
2.98135e-08
2.71383e-08
3.02815e-08
2.68507e-08
2.94365e-08
2.76015e-08
3.07592e-08
2.74394e-08
3.07416e-08
2.64197e-08
2.92039e-08
2.37118e-08
3.0675e-08
1.02948e-08
1.35038e-07
3.14562e-08
2.74424e-08
3.31433e-08
2.88399e-08
3.11978e-08
2.67834e-08
3.16348e-08
2.77159e-08
2.95891e-08
2.69613e-08
2.9608e-08
2.64428e-08
2.94213e-08
2.69633e-08
3.0131e-08
2.72672e-08
2.98613e-08
2.68046e-08
3.04571e-08
2.8035e-08
3.07682e-08
2.81505e-08
3.07709e-08
2.7706e-08
3.09416e-08
2.72547e-08
2.97923e-08
2.72053e-08
3.02524e-08
2.74802e-08
3.08216e-08
2.75534e-08
3.06083e-08
2.77516e-08
3.06675e-08
2.56247e-08
2.95057e-08
2.36628e-08
3.10679e-08
1.03632e-08
1.36948e-07
2.75533e-08
3.1846e-08
2.85051e-08
3.15624e-08
2.92455e-08
3.05785e-08
2.78592e-08
2.99073e-08
2.79416e-08
2.98838e-08
2.75395e-08
3.01214e-08
2.72621e-08
2.98225e-08
2.62123e-08
2.97398e-08
2.6564e-08
2.90242e-08
2.75101e-08
2.96325e-08
2.78014e-08
3.06014e-08
2.76661e-08
3.11499e-08
2.78143e-08
3.05032e-08
2.71184e-08
3.01161e-08
2.73384e-08
3.04077e-08
2.68337e-08
2.97127e-08
2.74441e-08
3.09223e-08
2.73106e-08
3.19537e-08
2.60266e-08
2.97073e-08
2.3371e-08
3.17908e-08
1.05342e-08
1.34831e-07
3.18793e-08
2.81465e-08
3.36468e-08
2.92265e-08
3.18018e-08
2.72296e-08
3.16361e-08
2.85152e-08
2.97123e-08
2.70328e-08
3.0413e-08
2.71735e-08
3.01504e-08
2.71218e-08
2.96954e-08
2.67079e-08
2.95633e-08
2.73227e-08
2.99383e-08
2.75236e-08
3.01582e-08
2.74921e-08
3.11801e-08
2.75278e-08
3.14961e-08
2.7767e-08
3.06453e-08
2.74075e-08
2.95193e-08
2.73716e-08
3.00302e-08
2.74283e-08
3.06217e-08
2.76331e-08
3.05908e-08
2.75318e-08
3.10859e-08
2.5633e-08
3.0076e-08
2.33207e-08
3.12842e-08
1.07781e-08
1.3523e-07
2.81995e-08
3.1822e-08
2.88961e-08
3.14613e-08
2.92831e-08
3.06128e-08
2.81078e-08
3.05897e-08
2.81387e-08
3.02517e-08
2.79535e-08
3.02675e-08
2.76439e-08
3.00205e-08
2.73393e-08
2.9182e-08
2.68091e-08
2.94861e-08
2.61847e-08
2.90901e-08
2.7086e-08
2.98577e-08
2.78898e-08
3.11222e-08
2.81047e-08
3.11592e-08
2.77753e-08
3.05143e-08
2.72439e-08
2.97683e-08
2.72894e-08
3.0328e-08
2.69036e-08
3.01435e-08
2.71346e-08
3.10634e-08
2.71753e-08
3.18313e-08
2.58775e-08
2.96816e-08
2.38218e-08
3.10444e-08
1.09712e-08
1.33992e-07
3.17048e-08
2.84971e-08
3.36858e-08
2.8623e-08
3.19822e-08
2.67379e-08
3.10202e-08
2.87467e-08
3.02036e-08
2.74181e-08
3.07773e-08
2.79783e-08
3.05172e-08
2.78272e-08
3.01724e-08
2.70676e-08
2.95608e-08
2.67026e-08
2.97886e-08
2.75013e-08
3.02094e-08
2.73208e-08
3.05796e-08
2.73189e-08
3.17621e-08
2.80952e-08
3.15509e-08
2.80192e-08
3.08408e-08
2.76767e-08
2.94378e-08
2.70708e-08
2.98376e-08
2.73743e-08
3.06513e-08
2.75149e-08
3.06016e-08
2.74792e-08
3.14475e-08
2.6044e-08
3.00771e-08
2.40786e-08
3.04502e-08
1.11501e-08
1.34332e-07
2.78011e-08
3.18696e-08
2.96606e-08
3.19204e-08
2.90028e-08
3.07617e-08
2.8371e-08
3.06652e-08
2.76426e-08
2.99973e-08
2.87086e-08
3.04917e-08
2.82706e-08
3.04072e-08
2.80701e-08
3.01482e-08
2.74296e-08
2.96988e-08
2.67178e-08
2.89399e-08
2.67589e-08
2.90003e-08
2.73102e-08
3.01709e-08
2.80166e-08
3.10883e-08
2.85611e-08
3.11165e-08
2.80188e-08
3.05398e-08
2.76645e-08
2.99098e-08
2.71773e-08
3.019e-08
2.70457e-08
3.05891e-08
2.68919e-08
3.05548e-08
2.70927e-08
3.1217e-08
2.62936e-08
2.98237e-08
2.38992e-08
3.05065e-08
1.06515e-08
1.33431e-07
3.25657e-08
2.86205e-08
3.29364e-08
2.78991e-08
3.18092e-08
2.65742e-08
3.03716e-08
2.87573e-08
3.12762e-08
2.80451e-08
2.97994e-08
2.77561e-08
3.08264e-08
2.79183e-08
3.04858e-08
2.81169e-08
3.02923e-08
2.70339e-08
2.95692e-08
2.6534e-08
2.94464e-08
2.73131e-08
3.03198e-08
2.71476e-08
3.07829e-08
2.72514e-08
3.11078e-08
2.85488e-08
3.16572e-08
2.83519e-08
3.05103e-08
2.76951e-08
2.93122e-08
2.72157e-08
2.99793e-08
2.73728e-08
3.04777e-08
2.7625e-08
3.08903e-08
2.7375e-08
3.14259e-08
2.57677e-08
3.00885e-08
2.42803e-08
3.15524e-08
1.0501e-08
1.33635e-07
2.79319e-08
3.16678e-08
2.93581e-08
3.18207e-08
2.94465e-08
3.08241e-08
2.83693e-08
2.974e-08
2.80255e-08
2.90209e-08
2.87658e-08
2.96359e-08
2.901e-08
3.04256e-08
2.87963e-08
3.02344e-08
2.82866e-08
2.99781e-08
2.72753e-08
2.95576e-08
2.6973e-08
2.90545e-08
2.67291e-08
2.9252e-08
2.77092e-08
3.04224e-08
2.85787e-08
3.0529e-08
2.83539e-08
3.14253e-08
2.83864e-08
3.03565e-08
2.76496e-08
2.95432e-08
2.72993e-08
3.01111e-08
2.71653e-08
3.0475e-08
2.7075e-08
3.04714e-08
2.68092e-08
3.15083e-08
2.59487e-08
3.02011e-08
2.37816e-08
3.21653e-08
1.08213e-08
1.3217e-07
3.21203e-08
2.82482e-08
3.20603e-08
2.81255e-08
3.14888e-08
2.63372e-08
2.98108e-08
2.85834e-08
2.97568e-08
2.8488e-08
2.99085e-08
2.77912e-08
2.98683e-08
2.748e-08
3.04557e-08
2.84294e-08
2.99915e-08
2.82826e-08
3.02917e-08
2.71839e-08
2.9416e-08
2.73457e-08
2.94619e-08
2.74525e-08
3.06494e-08
2.72253e-08
3.05216e-08
2.75145e-08
3.11557e-08
2.85455e-08
3.15777e-08
2.85335e-08
3.03598e-08
2.75539e-08
2.9532e-08
2.74465e-08
3.01111e-08
2.73298e-08
3.05196e-08
2.80351e-08
3.05819e-08
2.7328e-08
3.11407e-08
2.56635e-08
2.98953e-08
2.35374e-08
3.14974e-08
1.10475e-08
1.31489e-07
2.85826e-08
3.14159e-08
2.84853e-08
3.1477e-08
2.91529e-08
3.0571e-08
2.83891e-08
2.97818e-08
2.81046e-08
2.93125e-08
2.8613e-08
2.9234e-08
2.84639e-08
2.95772e-08
2.89912e-08
3.01495e-08
2.89691e-08
3.01179e-08
2.82761e-08
3.01271e-08
2.71748e-08
2.98233e-08
2.68741e-08
2.91675e-08
2.68248e-08
2.9246e-08
2.82769e-08
3.0056e-08
2.79597e-08
3.04275e-08
2.87977e-08
3.14402e-08
2.84007e-08
3.04249e-08
2.77166e-08
2.974e-08
2.74713e-08
3.00919e-08
2.73158e-08
3.03318e-08
2.7473e-08
3.10661e-08
2.70874e-08
3.16456e-08
2.56317e-08
3.02224e-08
2.40561e-08
3.10313e-08
1.14632e-08
1.30911e-07
3.17931e-08
2.73856e-08
3.14237e-08
2.92764e-08
3.11317e-08
2.64712e-08
2.94795e-08
2.82867e-08
2.99637e-08
2.85684e-08
2.94801e-08
2.81871e-08
2.98781e-08
2.77727e-08
3.02582e-08
2.84779e-08
3.05104e-08
2.87228e-08
2.99856e-08
2.79403e-08
3.01204e-08
2.74846e-08
2.93843e-08
2.75372e-08
2.94311e-08
2.70449e-08
3.07594e-08
2.72648e-08
3.08187e-08
2.78579e-08
3.1039e-08
2.87251e-08
3.12494e-08
2.85877e-08
3.04688e-08
2.73393e-08
2.99146e-08
2.74537e-08
3.00963e-08
2.73874e-08
3.02462e-08
2.75985e-08
3.04271e-08
2.66122e-08
3.16381e-08
2.55028e-08
2.97373e-08
2.41875e-08
3.07237e-08
1.09335e-08
1.31486e-07
2.84833e-08
3.23302e-08
2.84518e-08
3.10888e-08
2.91969e-08
3.07883e-08
2.84138e-08
3.01431e-08
2.84639e-08
2.95918e-08
2.81447e-08
2.93908e-08
2.7973e-08
2.95684e-08
2.88683e-08
2.94543e-08
2.89194e-08
2.98502e-08
2.91827e-08
2.99971e-08
2.87125e-08
2.9881e-08
2.71878e-08
2.95053e-08
2.7034e-08
2.91901e-08
2.72533e-08
2.93176e-08
2.78286e-08
3.00878e-08
2.81805e-08
3.04837e-08
2.87222e-08
3.12325e-08
2.842e-08
3.0577e-08
2.77124e-08
2.98824e-08
2.72978e-08
3.00178e-08
2.7637e-08
3.03081e-08
2.74524e-08
3.11727e-08
2.67037e-08
3.22459e-08
2.62084e-08
3.00907e-08
2.42404e-08
3.13309e-08
1.10364e-08
1.303e-07
3.11198e-08
2.78434e-08
3.1541e-08
2.94875e-08
3.11289e-08
2.74361e-08
2.98304e-08
2.85558e-08
3.02323e-08
2.87041e-08
2.9514e-08
2.81628e-08
2.98665e-08
2.80793e-08
2.98558e-08
2.80963e-08
3.08687e-08
2.84305e-08
2.98393e-08
2.89441e-08
3.02544e-08
2.82256e-08
2.99781e-08
2.78369e-08
2.94898e-08
2.72229e-08
2.93457e-08
2.73216e-08
3.07443e-08
2.79162e-08
3.03139e-08
2.80653e-08
3.08776e-08
2.91983e-08
3.15579e-08
2.83955e-08
3.05689e-08
2.76811e-08
3.01872e-08
2.74148e-08
3.02745e-08
2.74487e-08
3.03237e-08
2.72295e-08
3.1286e-08
2.72553e-08
3.18664e-08
2.61138e-08
2.9831e-08
2.40617e-08
3.15601e-08
1.11886e-08
1.30618e-07
2.88086e-08
3.1383e-08
2.74003e-08
3.08615e-08
2.90823e-08
3.07863e-08
2.81407e-08
3.01539e-08
2.91052e-08
2.97855e-08
2.85795e-08
2.95805e-08
2.82189e-08
2.97515e-08
2.79965e-08
2.95554e-08
2.87712e-08
2.94113e-08
2.89401e-08
2.99139e-08
2.88323e-08
3.00458e-08
2.87129e-08
2.97416e-08
2.75015e-08
2.95119e-08
2.69816e-08
2.90351e-08
2.69144e-08
2.93402e-08
2.79105e-08
3.03402e-08
2.83876e-08
3.03951e-08
2.88411e-08
3.09783e-08
2.88024e-08
3.06953e-08
2.80745e-08
3.03324e-08
2.73614e-08
2.97857e-08
2.77551e-08
3.04442e-08
2.6949e-08
3.08947e-08
2.75633e-08
3.19971e-08
2.65592e-08
3.0322e-08
2.39727e-08
3.16864e-08
1.14834e-08
1.29846e-07
3.04977e-08
2.83265e-08
3.27399e-08
2.98001e-08
3.19029e-08
2.86183e-08
2.99606e-08
2.90364e-08
3.08535e-08
2.98052e-08
3.03972e-08
2.84595e-08
2.98128e-08
2.79813e-08
3.00249e-08
2.79711e-08
2.96056e-08
2.80656e-08
3.009e-08
2.86531e-08
3.01952e-08
2.86512e-08
3.00941e-08
2.83528e-08
3.00194e-08
2.76056e-08
2.93023e-08
2.75659e-08
2.94462e-08
2.76007e-08
3.0976e-08
2.7754e-08
3.02103e-08
2.83971e-08
3.08898e-08
2.91633e-08
3.14298e-08
2.86308e-08
3.05107e-08
2.77669e-08
3.02994e-08
2.74529e-08
3.00706e-08
2.76368e-08
3.0591e-08
2.73418e-08
3.12834e-08
2.73982e-08
3.21341e-08
2.63758e-08
3.03189e-08
2.40377e-08
3.10643e-08
1.14018e-08
1.30984e-07
2.92016e-08
3.12425e-08
2.80041e-08
3.07841e-08
2.9254e-08
3.10743e-08
2.8246e-08
3.05063e-08
2.98963e-08
3.04041e-08
2.86665e-08
2.9797e-08
2.87202e-08
2.9378e-08
2.76548e-08
2.99189e-08
2.79403e-08
2.98238e-08
2.87416e-08
2.95732e-08
2.88367e-08
2.9708e-08
2.93405e-08
2.96396e-08
2.8818e-08
2.9735e-08
2.80098e-08
2.92481e-08
2.68801e-08
2.92524e-08
2.71708e-08
2.91836e-08
2.82779e-08
3.01568e-08
2.80997e-08
3.06618e-08
2.88963e-08
3.09446e-08
2.88457e-08
3.10505e-08
2.80972e-08
3.02492e-08
2.73827e-08
2.96617e-08
2.74128e-08
3.04865e-08
2.69201e-08
3.11278e-08
2.79254e-08
3.18939e-08
2.64647e-08
3.0634e-08
2.43667e-08
3.11507e-08
1.14531e-08
1.2882e-07
2.95284e-08
2.78153e-08
3.25429e-08
2.91609e-08
3.19974e-08
2.88993e-08
2.98618e-08
2.94031e-08
3.06597e-08
3.03431e-08
3.09825e-08
2.92959e-08
2.99096e-08
2.82354e-08
3.01448e-08
2.77776e-08
2.94502e-08
2.82796e-08
2.99467e-08
2.79588e-08
3.03547e-08
2.87109e-08
2.96864e-08
2.86894e-08
3.02809e-08
2.82269e-08
2.94143e-08
2.76978e-08
2.94046e-08
2.75478e-08
2.93018e-08
2.79532e-08
2.96697e-08
2.8163e-08
2.99478e-08
2.83405e-08
3.08641e-08
2.94402e-08
3.16243e-08
2.89172e-08
3.06652e-08
2.78173e-08
3.06216e-08
2.74039e-08
2.99854e-08
2.78205e-08
3.05179e-08
2.7369e-08
3.11072e-08
2.81059e-08
3.19084e-08
2.70512e-08
3.04651e-08
2.43687e-08
3.10057e-08
1.16685e-08
1.29345e-07
2.87506e-08
3.16019e-08
2.82301e-08
3.099e-08
2.93302e-08
3.11607e-08
2.85915e-08
3.08976e-08
2.99405e-08
3.13706e-08
2.88792e-08
3.06686e-08
2.87387e-08
2.98469e-08
2.86453e-08
2.95649e-08
2.76458e-08
2.93005e-08
2.80097e-08
2.91783e-08
2.85845e-08
2.90551e-08
2.9111e-08
3.05382e-08
2.87338e-08
2.99897e-08
2.90832e-08
2.95316e-08
2.84032e-08
2.93073e-08
2.6935e-08
2.92849e-08
2.71584e-08
2.96564e-08
2.86219e-08
3.03183e-08
2.82656e-08
3.0524e-08
2.9086e-08
3.07483e-08
2.87097e-08
3.08838e-08
2.82202e-08
3.0358e-08
2.72161e-08
2.97329e-08
2.74571e-08
3.05053e-08
2.71338e-08
3.08128e-08
2.79829e-08
3.18513e-08
2.68343e-08
3.05868e-08
2.46208e-08
3.08539e-08
1.1864e-08
1.28951e-07
3.01552e-08
2.76472e-08
3.33202e-08
2.9777e-08
3.22674e-08
2.87634e-08
2.97499e-08
2.96486e-08
2.98691e-08
3.06031e-08
3.08009e-08
2.97666e-08
3.08696e-08
2.9201e-08
2.97768e-08
2.81546e-08
2.93401e-08
2.785e-08
3.02185e-08
2.86121e-08
2.98881e-08
2.8356e-08
3.06105e-08
2.87066e-08
2.98583e-08
2.86982e-08
3.02387e-08
2.82435e-08
2.95815e-08
2.76619e-08
2.9241e-08
2.74366e-08
2.92877e-08
2.82724e-08
2.98381e-08
2.8383e-08
3.01192e-08
2.83346e-08
3.05523e-08
2.96114e-08
3.1331e-08
2.87426e-08
3.07453e-08
2.77542e-08
3.07032e-08
2.73141e-08
3.02459e-08
2.77501e-08
3.02633e-08
2.80257e-08
3.09582e-08
2.84527e-08
3.16615e-08
2.71511e-08
3.04484e-08
2.45023e-08
3.03989e-08
1.15405e-08
1.284e-07
2.83778e-08
3.0671e-08
2.95344e-08
3.13289e-08
2.98739e-08
3.12631e-08
2.90011e-08
3.10394e-08
2.93749e-08
3.17751e-08
2.94006e-08
3.13033e-08
2.94767e-08
3.06529e-08
2.91276e-08
2.9558e-08
2.89593e-08
2.96288e-08
2.81012e-08
2.88213e-08
2.81294e-08
2.9624e-08
2.84529e-08
2.96072e-08
2.87457e-08
2.97251e-08
2.87933e-08
3.01516e-08
2.90319e-08
2.98757e-08
2.85184e-08
2.92871e-08
2.71368e-08
2.91631e-08
2.70304e-08
2.96643e-08
2.84547e-08
2.98685e-08
2.85671e-08
3.0857e-08
2.93878e-08
3.09909e-08
2.87794e-08
3.04879e-08
2.79489e-08
3.05758e-08
2.71203e-08
2.99429e-08
2.72772e-08
3.01802e-08
2.74184e-08
3.08086e-08
2.8179e-08
3.14995e-08
2.7212e-08
3.01912e-08
2.47053e-08
3.11218e-08
1.16084e-08
1.26746e-07
3.07675e-08
2.77359e-08
3.22616e-08
2.9877e-08
3.22933e-08
2.8286e-08
2.96469e-08
2.94302e-08
2.89768e-08
3.04366e-08
3.02857e-08
3.09057e-08
3.05265e-08
3.00792e-08
3.00415e-08
2.91095e-08
2.98425e-08
2.81937e-08
2.92097e-08
2.82893e-08
2.98781e-08
2.84148e-08
2.99674e-08
2.80406e-08
3.02654e-08
2.85853e-08
3.0237e-08
2.8491e-08
2.96296e-08
2.83713e-08
2.96088e-08
2.79949e-08
2.91734e-08
2.77583e-08
2.91799e-08
2.83299e-08
2.98276e-08
2.83014e-08
3.02779e-08
2.83526e-08
3.03419e-08
2.96256e-08
3.09883e-08
2.85801e-08
3.09797e-08
2.75945e-08
3.06613e-08
2.74169e-08
3.05111e-08
2.80942e-08
3.04069e-08
2.793e-08
3.12257e-08
2.84303e-08
3.10996e-08
2.76696e-08
3.00581e-08
2.4314e-08
3.08437e-08
1.19235e-08
1.26972e-07
2.90751e-08
3.09007e-08
2.99629e-08
3.14454e-08
2.97915e-08
3.13433e-08
2.90951e-08
3.07789e-08
2.89615e-08
3.15502e-08
2.92702e-08
3.13876e-08
2.94661e-08
3.06775e-08
2.97128e-08
3.07424e-08
2.91971e-08
2.92987e-08
2.90811e-08
2.90197e-08
2.78007e-08
2.93809e-08
2.80247e-08
2.95766e-08
2.87868e-08
2.9656e-08
2.88105e-08
3.00481e-08
2.88457e-08
3.01141e-08
2.8854e-08
2.90316e-08
2.8326e-08
2.9311e-08
2.75603e-08
2.92173e-08
2.73628e-08
2.94771e-08
2.81278e-08
2.98939e-08
2.92042e-08
3.05661e-08
2.94252e-08
3.08959e-08
2.85491e-08
3.0699e-08
2.7832e-08
3.05571e-08
2.74917e-08
3.00915e-08
2.70903e-08
3.0237e-08
2.77313e-08
3.12566e-08
2.90362e-08
3.10212e-08
2.77025e-08
3.00414e-08
2.47506e-08
3.08018e-08
1.19314e-08
1.26419e-07
3.06291e-08
2.78801e-08
3.30019e-08
2.9849e-08
3.1851e-08
2.80198e-08
2.95353e-08
2.90333e-08
2.85869e-08
2.98438e-08
2.96086e-08
3.07267e-08
3.06459e-08
3.03066e-08
3.07294e-08
2.9865e-08
3.02514e-08
2.91177e-08
2.96083e-08
2.86166e-08
2.96296e-08
2.85769e-08
2.94686e-08
2.88379e-08
2.97386e-08
2.82985e-08
3.01694e-08
2.86252e-08
3.0013e-08
2.84784e-08
3.0507e-08
2.86639e-08
2.97803e-08
2.80903e-08
2.94601e-08
2.75181e-08
2.91892e-08
2.84098e-08
2.95866e-08
2.84616e-08
3.01374e-08
2.84424e-08
3.03601e-08
2.97497e-08
3.11842e-08
2.85061e-08
3.08696e-08
2.75956e-08
3.07799e-08
2.76715e-08
3.04838e-08
2.82742e-08
3.04471e-08
2.77933e-08
3.14209e-08
2.80707e-08
3.13707e-08
2.73858e-08
2.96242e-08
2.46787e-08
3.07023e-08
1.2106e-08
1.26525e-07
2.91133e-08
3.09176e-08
2.99698e-08
3.13974e-08
2.9458e-08
3.12105e-08
2.87372e-08
3.03631e-08
2.88542e-08
3.09963e-08
2.92243e-08
3.16208e-08
2.93829e-08
3.12869e-08
3.00591e-08
3.06153e-08
2.97234e-08
2.97129e-08
2.94499e-08
2.91174e-08
2.90765e-08
2.89701e-08
2.85224e-08
2.92881e-08
2.83054e-08
2.92079e-08
2.87569e-08
2.95273e-08
2.8756e-08
3.00733e-08
2.90908e-08
2.96554e-08
2.88579e-08
2.91351e-08
2.82732e-08
2.92199e-08
2.76862e-08
2.91639e-08
2.75592e-08
2.94535e-08
2.85401e-08
2.98431e-08
2.93747e-08
3.03495e-08
2.94188e-08
3.09243e-08
2.84355e-08
3.10121e-08
2.7892e-08
3.07226e-08
2.76789e-08
3.00522e-08
2.72174e-08
3.02778e-08
2.77491e-08
3.13579e-08
2.88098e-08
3.10082e-08
2.80058e-08
2.967e-08
2.47906e-08
3.0974e-08
1.19446e-08
1.24416e-07
3.08654e-08
2.78782e-08
3.27141e-08
2.98956e-08
3.08648e-08
2.80939e-08
2.94888e-08
2.88768e-08
2.85101e-08
2.94326e-08
2.90735e-08
3.06526e-08
2.92648e-08
3.09e-08
3.013e-08
3.06602e-08
3.05884e-08
2.97314e-08
2.99136e-08
2.95985e-08
2.92974e-08
2.88242e-08
2.93024e-08
2.83817e-08
2.95178e-08
2.85845e-08
2.98616e-08
2.8499e-08
3.01499e-08
2.88047e-08
2.99979e-08
2.87851e-08
3.02769e-08
2.8591e-08
2.94925e-08
2.79494e-08
2.91424e-08
2.78508e-08
2.85565e-08
2.86137e-08
2.96509e-08
2.84076e-08
2.9742e-08
2.86946e-08
3.01654e-08
2.94818e-08
3.11923e-08
2.84519e-08
3.08764e-08
2.78538e-08
3.12427e-08
2.78487e-08
3.05248e-08
2.86389e-08
3.08179e-08
2.80431e-08
3.1259e-08
2.92846e-08
3.10741e-08
2.77497e-08
2.95971e-08
2.49984e-08
3.09257e-08
1.20759e-08
1.25316e-07
2.93212e-08
3.09048e-08
3.01317e-08
3.17595e-08
2.9122e-08
3.11298e-08
2.84406e-08
2.9903e-08
2.85676e-08
3.05771e-08
2.91164e-08
3.07093e-08
2.95556e-08
3.20859e-08
2.96558e-08
3.1155e-08
2.96599e-08
3.06808e-08
2.97421e-08
2.94026e-08
2.92514e-08
2.92006e-08
2.9147e-08
2.9191e-08
2.87047e-08
2.93159e-08
2.85514e-08
2.94511e-08
2.91785e-08
2.94165e-08
2.94358e-08
2.99636e-08
2.88713e-08
2.95334e-08
2.89915e-08
2.93193e-08
2.83725e-08
2.92961e-08
2.80761e-08
2.9004e-08
2.74684e-08
2.92212e-08
2.86482e-08
2.95976e-08
2.94877e-08
3.03625e-08
2.92721e-08
3.11565e-08
2.84466e-08
3.13128e-08
2.79513e-08
3.06172e-08
2.76475e-08
3.00575e-08
2.74226e-08
3.04507e-08
2.81469e-08
3.12e-08
2.88338e-08
3.09702e-08
2.84032e-08
2.9573e-08
2.48357e-08
3.13843e-08
1.21317e-08
1.23553e-07
3.09249e-08
2.78949e-08
3.21947e-08
2.96464e-08
3.10033e-08
2.85771e-08
2.94311e-08
2.87931e-08
2.84993e-08
2.93714e-08
2.89423e-08
2.98385e-08
2.93803e-08
2.96101e-08
2.97252e-08
3.02122e-08
3.04323e-08
3.01145e-08
2.948e-08
2.97477e-08
2.97248e-08
2.93515e-08
2.93967e-08
2.84952e-08
2.89788e-08
2.86344e-08
2.92585e-08
2.8751e-08
2.98012e-08
2.85642e-08
3.01229e-08
2.8827e-08
2.99376e-08
2.8873e-08
3.0277e-08
2.87736e-08
2.93067e-08
2.81222e-08
2.87707e-08
2.78242e-08
2.88767e-08
2.84145e-08
2.98508e-08
2.8619e-08
2.9576e-08
2.87149e-08
3.02815e-08
2.94459e-08
3.08633e-08
2.85702e-08
3.12929e-08
2.80701e-08
3.12686e-08
2.79062e-08
3.07213e-08
2.85648e-08
3.05158e-08
2.86774e-08
3.1176e-08
2.93958e-08
3.10054e-08
2.7906e-08
2.96428e-08
2.45054e-08
3.1199e-08
1.22083e-08
1.23479e-07
2.95415e-08
3.10137e-08
3.00593e-08
3.19668e-08
2.81918e-08
3.11025e-08
2.79747e-08
2.95252e-08
2.85146e-08
3.05711e-08
2.89675e-08
3.03867e-08
2.91531e-08
3.04203e-08
2.98753e-08
3.17545e-08
3.00206e-08
3.08205e-08
2.99399e-08
3.11502e-08
2.9433e-08
2.97532e-08
2.93757e-08
2.91475e-08
2.953e-08
2.91028e-08
2.88698e-08
2.92209e-08
2.87443e-08
2.92722e-08
2.90034e-08
2.95495e-08
2.93523e-08
2.98167e-08
2.89896e-08
2.96302e-08
2.92832e-08
2.91963e-08
2.86401e-08
2.91299e-08
2.80636e-08
2.84202e-08
2.76639e-08
2.90787e-08
2.87401e-08
2.94878e-08
2.93265e-08
3.01692e-08
2.93557e-08
3.10345e-08
2.83945e-08
3.13925e-08
2.83847e-08
3.06219e-08
2.7881e-08
2.99459e-08
2.77872e-08
3.06048e-08
2.81358e-08
3.10416e-08
2.89169e-08
3.06208e-08
2.81696e-08
2.98986e-08
2.4529e-08
3.15458e-08
1.23396e-08
1.22614e-07
3.12055e-08
2.79995e-08
3.17764e-08
2.99329e-08
3.05686e-08
2.87066e-08
2.91209e-08
2.87795e-08
2.84899e-08
2.96194e-08
2.88312e-08
2.98642e-08
2.91236e-08
3.01657e-08
2.97771e-08
2.96629e-08
2.95726e-08
3.06798e-08
3.03399e-08
3.02789e-08
2.98909e-08
2.97612e-08
2.98107e-08
2.93564e-08
2.89762e-08
2.85426e-08
2.91448e-08
2.87635e-08
2.9149e-08
2.88802e-08
2.95702e-08
2.88895e-08
2.9767e-08
2.93164e-08
2.99681e-08
2.88873e-08
2.98984e-08
2.86599e-08
2.91506e-08
2.79183e-08
2.8835e-08
2.79929e-08
2.89638e-08
2.87047e-08
2.95326e-08
2.87459e-08
2.93027e-08
2.88968e-08
3.01954e-08
2.91608e-08
3.09587e-08
2.8599e-08
3.135e-08
2.83794e-08
3.12838e-08
2.81718e-08
3.0645e-08
2.85868e-08
3.0779e-08
2.90928e-08
3.09389e-08
2.97072e-08
3.06593e-08
2.78544e-08
3.00358e-08
2.46206e-08
3.16468e-08
1.24339e-08
1.23286e-07
2.97093e-08
3.10497e-08
2.99751e-08
3.13711e-08
2.76065e-08
3.12123e-08
2.78576e-08
2.9464e-08
2.85345e-08
3.03445e-08
2.92782e-08
3.05236e-08
2.90346e-08
3.01993e-08
2.92961e-08
3.04285e-08
3.03253e-08
3.05929e-08
2.98204e-08
3.08175e-08
3.00172e-08
3.03852e-08
2.96769e-08
2.95552e-08
2.99596e-08
2.9303e-08
2.90557e-08
2.90964e-08
2.88877e-08
2.91336e-08
2.87213e-08
2.91911e-08