/*--------------------------------*- C++ -*----------------------------------*\
| =========                 |                                                 |
| \\      /  F ield         | OpenFOAM: The Open Source CFD Toolbox           |
|  \\    /   O peration     | Version:  2206                                  |
|   \\  /    A nd           | Website:  www.openfoam.com                      |
|    \\/     M anipulation  |                                                 |
\*---------------------------------------------------------------------------*/
FoamFile
{
    version     2.0;
    format      ascii;
    arch        "LSB;label=32;scalar=64";
    class       volScalarField;
    location    "180";
    object      nuTildaMean;
}
// * * * * * * * * * * * * * * * * * * * * * * * * * * * * * * * * * * * * * //

dimensions      [0 2 -1 0 0 0 0];

internalField   nonuniform List<scalar> 
93840
(
4.42779e-07
2.93174e-07
4.43557e-07
4.03413e-07
2.91758e-07
4.34375e-07
3.71932e-07
4.16563e-07
3.2447e-07
4.25078e-07
4.13401e-07
3.83551e-07
4.1203e-07
3.44344e-07
4.27678e-07
3.88849e-07
4.04507e-07
3.88389e-07
4.10684e-07
3.39363e-07
4.0859e-07
4.00622e-07
3.95103e-07
4.04252e-07
3.90751e-07
4.15345e-07
3.70065e-07
4.31113e-07
3.96713e-07
4.00481e-07
3.93176e-07
4.01509e-07
3.94424e-07
4.11482e-07
3.56163e-07
4.08131e-07
3.99838e-07
3.90807e-07
4.00615e-07
3.97968e-07
3.99532e-07
3.95853e-07
4.05885e-07
3.62951e-07
4.29713e-07
3.97056e-07
4.0642e-07
3.9694e-07
3.9908e-07
3.97717e-07
3.99017e-07
3.92085e-07
4.05435e-07
3.56922e-07
4.14225e-07
3.99544e-07
3.93559e-07
4.01294e-07
3.95639e-07
4.00331e-07
3.98601e-07
3.99367e-07
3.96108e-07
4.04449e-07
3.70295e-07
4.31462e-07
3.96198e-07
4.00875e-07
3.95039e-07
4.02108e-07
3.98326e-07
3.98919e-07
3.97633e-07
4.01177e-07
3.92406e-07
3.99186e-07
3.65879e-07
4.1483e-07
3.99464e-07
3.94478e-07
4.00013e-07
3.97202e-07
3.99164e-07
3.989e-07
4.00525e-07
3.9512e-07
4.01849e-07
3.9634e-07
3.98992e-07
3.68053e-07
4.24104e-07
3.97984e-07
4.00027e-07
3.95699e-07
3.98237e-07
3.97633e-07
3.98671e-07
3.98251e-07
4.02091e-07
3.98142e-07
4.01717e-07
3.96892e-07
4.03737e-07
3.65148e-07
4.18109e-07
3.9817e-07
3.97279e-07
3.99927e-07
3.98585e-07
3.98612e-07
3.98427e-07
3.98757e-07
3.97384e-07
3.9847e-07
3.97102e-07
3.99349e-07
3.94695e-07
4.05078e-07
3.6937e-07
4.24694e-07
3.98208e-07
3.99096e-07
3.97389e-07
3.98344e-07
3.98237e-07
3.98579e-07
3.98624e-07
3.99547e-07
3.97695e-07
4.00732e-07
3.97659e-07
4.01685e-07
3.93409e-07
4.0139e-07
3.66027e-07
4.18794e-07
3.98329e-07
3.96966e-07
3.9978e-07
3.98417e-07
3.98784e-07
3.98382e-07
3.98463e-07
3.98367e-07
4.00021e-07
3.97753e-07
3.99407e-07
3.97537e-07
3.99647e-07
3.95802e-07
4.02459e-07
3.67829e-07
4.2276e-07
3.98119e-07
3.99164e-07
3.96329e-07
3.98445e-07
3.97322e-07
3.98474e-07
3.98411e-07
3.98711e-07
3.97367e-07
3.99825e-07
3.97675e-07
3.99841e-07
3.97205e-07
4.02148e-07
3.95452e-07
4.04153e-07
3.67006e-07
4.18485e-07
3.98167e-07
3.9791e-07
3.99464e-07
3.97488e-07
3.99416e-07
3.9836e-07
3.98885e-07
3.97736e-07
3.99619e-07
3.98314e-07
3.99385e-07
3.98049e-07
3.99542e-07
3.97295e-07
3.99054e-07
3.9395e-07
4.04571e-07
3.69919e-07
4.21925e-07
3.98244e-07
3.98478e-07
3.97477e-07
3.99603e-07
3.97937e-07
3.98278e-07
3.98388e-07
3.99655e-07
3.97991e-07
3.98987e-07
3.97709e-07
3.99539e-07
3.97625e-07
4.00528e-07
3.97974e-07
4.02297e-07
3.94698e-07
4.02058e-07
3.68957e-07
4.17785e-07
3.98317e-07
3.97935e-07
3.98736e-07
3.9793e-07
3.98849e-07
3.98454e-07
3.9867e-07
3.97795e-07
3.99509e-07
3.98521e-07
3.99617e-07
3.97431e-07
4.00047e-07
3.99009e-07
3.99488e-07
3.97226e-07
3.99446e-07
3.96571e-07
4.02807e-07
3.70283e-07
4.21309e-07
3.98118e-07
3.98497e-07
3.97799e-07
3.98459e-07
3.97644e-07
3.98308e-07
3.98511e-07
3.98956e-07
3.97759e-07
3.98625e-07
3.9793e-07
4.00297e-07
3.9777e-07
3.99421e-07
3.95919e-07
3.99686e-07
3.97366e-07
4.0164e-07
3.93937e-07
4.03201e-07
3.67729e-07
4.18471e-07
3.98464e-07
3.97874e-07
3.98391e-07
3.9821e-07
3.9861e-07
3.98408e-07
3.98631e-07
3.97609e-07
3.99685e-07
3.97657e-07
3.99593e-07
3.97181e-07
4.00002e-07
3.98536e-07
4.00221e-07
3.98717e-07
4.00187e-07
3.96676e-07
3.99668e-07
3.96125e-07
4.03761e-07
3.70695e-07
4.22191e-07
3.97997e-07
3.98634e-07
3.98276e-07
3.98924e-07
3.98085e-07
3.98282e-07
3.98438e-07
3.99955e-07
3.9598e-07
3.9927e-07
3.97918e-07
3.99701e-07
3.97147e-07
3.98675e-07
3.96966e-07
4.00364e-07
3.96198e-07
4.00738e-07
3.97957e-07
4.02184e-07
3.93452e-07
4.03278e-07
3.68838e-07
4.20444e-07
3.98258e-07
3.97835e-07
3.98413e-07
3.9744e-07
3.98545e-07
3.98408e-07
3.98502e-07
3.97981e-07
4.01639e-07
3.98421e-07
3.99734e-07
3.97589e-07
4.00316e-07
3.97881e-07
4.00376e-07
3.98338e-07
4.00188e-07
3.98429e-07
3.99841e-07
3.95962e-07
3.99726e-07
3.95855e-07
4.02007e-07
3.71845e-07
4.28765e-07
3.98013e-07
3.98619e-07
3.98216e-07
3.98727e-07
3.97902e-07
3.98455e-07
3.98305e-07
3.98544e-07
3.96752e-07
3.9871e-07
3.97242e-07
3.9907e-07
3.97135e-07
4.00132e-07
3.97126e-07
3.98989e-07
3.9669e-07
4.0014e-07
3.96716e-07
4.00585e-07
3.97711e-07
4.02143e-07
3.94037e-07
4.00672e-07
3.66048e-07
4.14868e-07
3.98478e-07
3.98241e-07
3.98485e-07
3.97641e-07
3.98526e-07
3.98285e-07
3.98365e-07
3.98395e-07
3.98868e-07
3.98413e-07
3.99476e-07
3.9823e-07
4.00229e-07
3.96958e-07
3.99515e-07
3.98834e-07
3.99486e-07
3.97732e-07
3.99997e-07
3.98638e-07
3.99586e-07
3.96577e-07
4.01551e-07
3.96682e-07
4.0115e-07
3.6834e-07
4.20922e-07
3.98057e-07
3.98431e-07
3.98293e-07
3.99013e-07
3.98398e-07
3.98731e-07
3.98324e-07
3.98992e-07
3.97898e-07
3.99513e-07
3.97423e-07
3.99317e-07
3.97204e-07
3.99712e-07
3.9727e-07
3.98639e-07
3.97664e-07
3.99549e-07
3.98344e-07
3.99317e-07
3.97259e-07
3.99685e-07
3.97742e-07
4.01622e-07
3.9508e-07
4.0213e-07
3.723e-07
4.18156e-07
3.98265e-07
3.98244e-07
3.98548e-07
3.97988e-07
3.98444e-07
3.97988e-07
3.98526e-07
3.97616e-07
3.99589e-07
3.97288e-07
3.99481e-07
3.977e-07
3.99824e-07
3.97911e-07
4.00754e-07
3.97866e-07
3.99924e-07
3.98488e-07
3.99726e-07
3.982e-07
4.00376e-07
3.98185e-07
3.99866e-07
3.96732e-07
4.00368e-07
3.96884e-07
4.0144e-07
3.71178e-07
4.21401e-07
3.98267e-07
3.98352e-07
3.97887e-07
3.98596e-07
3.98364e-07
3.98841e-07
3.98528e-07
3.9999e-07
3.95638e-07
3.99956e-07
3.97192e-07
3.99556e-07
3.974e-07
3.9906e-07
3.97565e-07
3.99349e-07
3.97425e-07
3.98989e-07
3.97184e-07
3.9916e-07
3.96836e-07
3.99839e-07
3.97567e-07
4.00091e-07
3.98385e-07
4.00706e-07
3.94865e-07
4.03013e-07
3.70215e-07
4.19009e-07
3.98692e-07
3.98138e-07
3.98844e-07
3.9847e-07
3.98557e-07
3.97939e-07
3.98371e-07
3.98077e-07
4.02126e-07
3.9797e-07
3.99927e-07
3.97438e-07
3.99785e-07
3.97999e-07
4.00089e-07
3.97751e-07
4.00262e-07
3.98845e-07
3.99913e-07
3.99174e-07
3.99895e-07
3.9859e-07
3.99676e-07
3.97971e-07
3.99397e-07
3.97335e-07
4.00028e-07
3.9581e-07
4.01667e-07
3.72501e-07
4.20916e-07
3.97777e-07
3.98543e-07
3.97629e-07
3.98468e-07
3.98264e-07
3.99448e-07
3.98462e-07
3.98714e-07
3.9654e-07
3.98627e-07
3.97398e-07
4.00396e-07
3.97303e-07
3.99132e-07
3.97518e-07
3.99649e-07
3.97558e-07
3.98896e-07
3.96745e-07
3.9921e-07
3.97703e-07
3.99272e-07
3.97218e-07
3.99847e-07
3.98336e-07
3.99841e-07
3.98202e-07
4.0113e-07
3.95867e-07
4.0062e-07
3.71532e-07
4.19197e-07
3.98481e-07
3.97909e-07
3.98713e-07
3.98386e-07
3.98314e-07
3.9651e-07
3.98303e-07
3.98455e-07
3.98901e-07
3.9824e-07
3.99604e-07
3.9726e-07
3.99639e-07
3.97873e-07
3.99471e-07
3.98501e-07
3.99089e-07
3.97995e-07
4.00254e-07
3.98988e-07
3.99151e-07
3.98221e-07
3.98913e-07
3.98975e-07
3.98994e-07
3.97695e-07
3.99386e-07
3.96928e-07
4.00326e-07
3.97206e-07
4.00482e-07
3.71723e-07
4.20282e-07
3.98074e-07
3.98485e-07
3.98227e-07
3.98458e-07
3.98296e-07
3.99183e-07
3.9861e-07
3.9876e-07
3.98003e-07
3.99463e-07
3.97871e-07
4.00236e-07
3.97458e-07
3.99007e-07
3.97753e-07
3.98928e-07
3.97901e-07
3.99686e-07
3.9798e-07
3.992e-07
3.96998e-07
3.99087e-07
3.97907e-07
3.9928e-07
3.9733e-07
3.99765e-07
3.97958e-07
3.99667e-07
3.97718e-07
4.00903e-07
3.95256e-07
4.01323e-07
3.71517e-07
4.19632e-07
3.98295e-07
3.97798e-07
3.98325e-07
3.98293e-07
3.9828e-07
3.98364e-07
3.98287e-07
3.98412e-07
3.99193e-07
3.97776e-07
3.99069e-07
3.97229e-07
3.9995e-07
3.98058e-07
3.99847e-07
3.98072e-07
3.98978e-07
3.98095e-07
3.98823e-07
3.98419e-07
3.99805e-07
3.98363e-07
4.00029e-07
3.98647e-07
3.99491e-07
3.98922e-07
3.99391e-07
3.97997e-07
4.00217e-07
3.97328e-07
4.00929e-07
3.97691e-07
4.01335e-07
3.71131e-07
4.2065e-07
3.97943e-07
3.98858e-07
3.98363e-07
3.98276e-07
3.98327e-07
3.98273e-07
3.98522e-07
3.98788e-07
3.98175e-07
3.9944e-07
3.9793e-07
3.9966e-07
3.97342e-07
3.99468e-07
3.97959e-07
3.98989e-07
3.98333e-07
3.9915e-07
3.98024e-07
3.99471e-07
3.97535e-07
3.99105e-07
3.96241e-07
3.99083e-07
3.97689e-07
3.9868e-07
3.97578e-07
3.99527e-07
3.9753e-07
3.994e-07
3.97252e-07
4.01185e-07
3.9483e-07
4.0162e-07
3.71021e-07
4.1885e-07
3.98356e-07
3.98011e-07
3.98479e-07
3.98306e-07
3.98357e-07
3.98279e-07
3.98387e-07
3.98256e-07
3.98941e-07
3.98116e-07
3.99272e-07
3.97307e-07
4.00007e-07
3.97806e-07
3.99943e-07
3.97666e-07
3.98988e-07
3.98223e-07
3.99525e-07
3.98416e-07
3.99132e-07
3.98969e-07
4.00623e-07
3.99143e-07
3.99157e-07
3.98693e-07
3.99668e-07
3.98487e-07
3.9959e-07
3.98392e-07
4.0043e-07
3.97647e-07
4.00707e-07
3.96886e-07
4.01905e-07
3.72052e-07
4.21395e-07
3.98228e-07
3.98557e-07
3.98402e-07
3.98544e-07
3.98321e-07
3.98479e-07
3.98506e-07
3.98756e-07
3.97983e-07
3.99104e-07
3.97956e-07
3.99719e-07
3.97661e-07
3.99133e-07
3.97509e-07
3.99771e-07
3.98501e-07
3.99038e-07
3.97942e-07
3.9889e-07
3.9793e-07
3.98928e-07
3.9673e-07
3.99514e-07
3.97051e-07
3.98931e-07
3.98012e-07
3.98505e-07
3.97951e-07
3.99047e-07
3.96978e-07
3.99216e-07
3.98023e-07
4.01253e-07
3.95516e-07
4.00921e-07
3.70771e-07
4.19595e-07
3.98422e-07
3.98052e-07
3.98703e-07
3.9788e-07
3.98481e-07
3.98562e-07
3.98625e-07
3.98603e-07
3.99646e-07
3.97774e-07
3.99301e-07
3.97998e-07
3.99902e-07
3.97849e-07
3.99582e-07
3.97528e-07
3.99368e-07
3.98246e-07
3.98975e-07
3.98981e-07
3.99257e-07
3.98296e-07
3.99318e-07
3.98843e-07
3.99906e-07
3.99026e-07
3.99317e-07
3.98543e-07
3.99455e-07
3.98521e-07
3.9967e-07
3.98825e-07
3.99434e-07
3.97422e-07
4.01005e-07
3.96939e-07
4.01324e-07
3.7168e-07
4.21438e-07
3.98265e-07
3.98957e-07
3.98403e-07
3.99308e-07
3.98628e-07
3.98713e-07
3.9871e-07
3.98689e-07
3.98342e-07
3.99513e-07
3.97865e-07
3.99136e-07
3.97629e-07
3.99895e-07
3.97592e-07
3.99933e-07
3.98104e-07
3.99019e-07
3.98091e-07
3.98822e-07
3.97683e-07
3.99072e-07
3.98074e-07
3.99177e-07
3.97138e-07
3.9886e-07
3.98049e-07
3.98293e-07
3.98359e-07
3.98651e-07
3.97937e-07
3.99547e-07
3.9773e-07
3.99764e-07
3.97173e-07
4.00718e-07
3.96091e-07
4.02668e-07
3.71114e-07
4.18817e-07
3.98321e-07
3.98303e-07
3.98957e-07
3.98117e-07
3.98667e-07
3.98711e-07
3.98602e-07
3.98555e-07
3.98837e-07
3.97954e-07
3.99379e-07
3.98104e-07
3.99693e-07
3.97721e-07
4.00017e-07
3.97906e-07
3.99619e-07
3.97949e-07
3.99667e-07
3.98557e-07
3.99419e-07
3.98556e-07
3.99197e-07
3.9822e-07
3.99328e-07
3.98556e-07
3.99013e-07
3.98596e-07
3.99351e-07
3.98275e-07
3.99086e-07
3.98624e-07
3.99019e-07
3.98923e-07
3.99613e-07
3.97809e-07
4.00217e-07
3.9628e-07
4.01494e-07
3.72338e-07
4.20151e-07
3.98205e-07
3.98485e-07
3.97997e-07
3.98954e-07
3.98801e-07
3.9872e-07
3.9845e-07
3.98455e-07
3.98522e-07
3.99265e-07
3.97804e-07
3.99546e-07
3.97409e-07
3.99326e-07
3.97733e-07
3.9926e-07
3.97724e-07
3.9945e-07
3.98022e-07
3.98664e-07
3.97783e-07
3.9898e-07
3.97897e-07
3.98728e-07
3.98285e-07
3.99114e-07
3.98203e-07
3.99361e-07
3.97883e-07
3.98776e-07
3.98465e-07
3.99149e-07
3.97889e-07
3.99193e-07
3.97793e-07
4.00014e-07
3.97122e-07
4.00438e-07
3.96128e-07
4.02683e-07
3.72028e-07
4.19086e-07
3.98464e-07
3.98296e-07
3.98621e-07
3.98068e-07
3.98514e-07
3.98452e-07
3.98385e-07
3.98508e-07
3.98782e-07
3.98044e-07
3.99723e-07
3.97873e-07
4.00373e-07
3.98599e-07
4.01437e-07
3.97824e-07
3.99833e-07
3.98828e-07
3.992e-07
3.98607e-07
3.99887e-07
3.98093e-07
3.99462e-07
3.98171e-07
3.9952e-07
3.98287e-07
3.99301e-07
3.98333e-07
3.99515e-07
3.98617e-07
3.98885e-07
3.98455e-07
3.98735e-07
3.98946e-07
3.98834e-07
3.98454e-07
3.99934e-07
3.97558e-07
4.01084e-07
3.96055e-07
4.01808e-07
3.72957e-07
4.19642e-07
3.98108e-07
3.98477e-07
3.98404e-07
3.98939e-07
3.98364e-07
3.98336e-07
3.98398e-07
3.98717e-07
3.98442e-07
3.99121e-07
3.97654e-07
3.99265e-07
3.97612e-07
3.99064e-07
3.98018e-07
3.97873e-07
3.97943e-07
3.98828e-07
3.97523e-07
3.98716e-07
3.98301e-07
3.9911e-07
3.97825e-07
3.99196e-07
3.98177e-07
3.98776e-07
3.98187e-07
3.98777e-07
3.97975e-07
3.98924e-07
3.98357e-07
3.99037e-07
3.98517e-07
3.99227e-07
3.98008e-07
3.99021e-07
3.97673e-07
4.00016e-07
3.96982e-07
4.00772e-07
3.96113e-07
4.01999e-07
3.7306e-07
4.19052e-07
3.98336e-07
3.97918e-07
3.98485e-07
3.97492e-07
3.98256e-07
3.9833e-07
3.98652e-07
3.97813e-07
3.99334e-07
3.98103e-07
3.99564e-07
3.9745e-07
3.99667e-07
3.98313e-07
3.99548e-07
3.98149e-07
3.99986e-07
3.98302e-07
4.00512e-07
3.98922e-07
3.99324e-07
3.98295e-07
3.99871e-07
3.98137e-07
3.99581e-07
3.98334e-07
3.99531e-07
3.98579e-07
3.99113e-07
3.98808e-07
3.99016e-07
3.98289e-07
3.98879e-07
3.98335e-07
3.98687e-07
3.98563e-07
3.99128e-07
3.9813e-07
3.99968e-07
3.9732e-07
4.00775e-07
3.96654e-07
4.00896e-07
3.7335e-07
4.19558e-07
3.97409e-07
3.98636e-07
3.98475e-07
3.99707e-07
3.98469e-07
3.98566e-07
3.98512e-07
3.99744e-07
3.94915e-07
3.99497e-07
3.98002e-07
4.00039e-07
3.97621e-07
3.99001e-07
3.98114e-07
3.99187e-07
3.98758e-07
3.98597e-07
3.99194e-07
3.97618e-07
3.98493e-07
3.98594e-07
3.98666e-07
3.99354e-07
3.98165e-07
3.98601e-07
3.9835e-07
3.98546e-07
3.98205e-07
3.9887e-07
3.97877e-07
3.99321e-07
3.98231e-07
3.98947e-07
3.9847e-07
3.99112e-07
3.98223e-07
3.99435e-07
3.97687e-07
3.9966e-07
3.97384e-07
4.00177e-07
3.96472e-07
4.00951e-07
3.72658e-07
4.19279e-07
3.99464e-07
3.97572e-07
3.98046e-07
3.97715e-07
3.98538e-07
3.98518e-07
3.98465e-07
3.98463e-07
4.03439e-07
3.98874e-07
3.99291e-07
3.97463e-07
4.00008e-07
3.97821e-07
3.99538e-07
3.9836e-07
3.99916e-07
3.98168e-07
4.00109e-07
3.97665e-07
3.99888e-07
3.98728e-07
3.99022e-07
3.98112e-07
3.99431e-07
3.981e-07
3.99737e-07
3.98647e-07
3.99255e-07
3.98675e-07
3.99484e-07
3.98565e-07
3.98846e-07
3.98161e-07
3.9908e-07
3.98396e-07
3.99013e-07
3.98414e-07
3.9922e-07
3.98186e-07
3.9985e-07
3.97579e-07
4.00153e-07
3.96574e-07
4.01277e-07
3.71983e-07
4.19813e-07
3.97747e-07
3.99271e-07
3.98413e-07
3.98388e-07
3.9851e-07
3.98518e-07
3.98491e-07
3.9848e-07
3.9625e-07
3.97927e-07
3.972e-07
3.99662e-07
3.98312e-07
3.99445e-07
3.97915e-07
3.99191e-07
3.98522e-07
3.98915e-07
3.98842e-07
3.98354e-07
3.98832e-07
3.98157e-07
3.98448e-07
3.98864e-07
3.98237e-07
3.99097e-07
3.98414e-07
3.98473e-07
3.98154e-07
3.98972e-07
3.97665e-07
3.98772e-07
3.9828e-07
3.99139e-07
3.98569e-07
3.98795e-07
3.98527e-07
3.99059e-07
3.98237e-07
3.99182e-07
3.97868e-07
3.99863e-07
3.97165e-07
4.00649e-07
3.96593e-07
4.027e-07
3.71692e-07
4.19481e-07
3.98336e-07
3.97915e-07
3.98792e-07
3.98386e-07
3.98541e-07
3.9845e-07
3.98466e-07
3.98566e-07
3.98484e-07
3.98715e-07
4.00171e-07
3.98421e-07
3.98984e-07
3.98118e-07
3.99784e-07
3.98584e-07
3.9894e-07
3.98722e-07
3.99579e-07
3.98321e-07
3.99529e-07
3.98939e-07
3.99466e-07
3.98427e-07
3.99497e-07
3.98409e-07
3.99335e-07
3.98241e-07
3.99458e-07
3.98529e-07
3.99238e-07
3.98706e-07
3.99111e-07
3.98543e-07
3.98721e-07
3.9805e-07
3.99089e-07
3.98309e-07
3.98967e-07
3.98387e-07
3.99324e-07
3.98063e-07
3.99797e-07
3.97406e-07
3.99987e-07
3.96334e-07
4.02605e-07
3.72008e-07
4.19386e-07
3.97627e-07
3.9866e-07
3.97727e-07
3.98422e-07
3.98478e-07
3.98434e-07
3.9852e-07
3.98565e-07
3.98289e-07
3.9925e-07
3.9775e-07
3.99334e-07
3.97474e-07
3.99421e-07
3.97687e-07
3.98682e-07
3.98045e-07
3.98963e-07
3.98815e-07
3.99231e-07
3.98807e-07
3.98438e-07
3.98403e-07
3.98743e-07
3.99151e-07
3.98703e-07
3.97939e-07
3.99028e-07
3.98509e-07
3.98591e-07
3.98059e-07
3.993e-07
3.97729e-07
3.98892e-07
3.98478e-07
3.99268e-07
3.9854e-07
3.9896e-07
3.98556e-07
3.99064e-07
3.98196e-07
3.99179e-07
3.97971e-07
4.00089e-07
3.97531e-07
4.0008e-07
3.95816e-07
4.02319e-07
3.73049e-07
4.18807e-07
3.99463e-07
3.98083e-07
3.98463e-07
3.98576e-07
3.98552e-07
3.98544e-07
3.98426e-07
3.98479e-07
3.98954e-07
3.98175e-07
3.99202e-07
3.98199e-07
4.00301e-07
3.97894e-07
3.99831e-07
3.99172e-07
4.00098e-07
3.98179e-07
3.99285e-07
3.98469e-07
3.99593e-07
3.9846e-07
3.99569e-07
3.98716e-07
3.99268e-07
3.97656e-07
3.99522e-07
3.98635e-07
3.99483e-07
3.98333e-07
3.9929e-07
3.98698e-07
3.9917e-07
3.98859e-07
3.98936e-07
3.98405e-07
3.98943e-07
3.98062e-07
3.98881e-07
3.98371e-07
3.99006e-07
3.98121e-07
3.98994e-07
3.97813e-07
3.99927e-07
3.97192e-07
4.00284e-07
3.96757e-07
4.01747e-07
3.72739e-07
4.19642e-07
3.97362e-07
3.98747e-07
3.9892e-07
3.98487e-07
3.98505e-07
3.98532e-07
3.98558e-07
3.98444e-07
3.98434e-07
3.9937e-07
3.98032e-07
3.99466e-07
3.97699e-07
4.00015e-07
3.97809e-07
3.98972e-07
3.97509e-07
3.99169e-07
3.9817e-07
3.98709e-07
3.98569e-07
3.98971e-07
3.98545e-07
3.98471e-07
3.98641e-07
3.9874e-07
3.98754e-07
3.98902e-07
3.97936e-07
3.98954e-07
3.98307e-07
3.98836e-07
3.9782e-07
3.99348e-07
3.97955e-07
3.98847e-07
3.98317e-07
3.99209e-07
3.98467e-07
3.98822e-07
3.98357e-07
3.99325e-07
3.9836e-07
3.99215e-07
3.97604e-07
4.00151e-07
3.96883e-07
4.00166e-07
3.96373e-07
4.01876e-07
3.72899e-07
4.19005e-07
3.98946e-07
3.97649e-07
3.97986e-07
3.98205e-07
3.98507e-07
3.9842e-07
3.98459e-07
3.98429e-07
3.9862e-07
3.9818e-07
3.98896e-07
3.98243e-07
3.99526e-07
3.98058e-07
3.99617e-07
3.98525e-07
4.00061e-07
3.98215e-07
3.99648e-07
3.98538e-07
3.99345e-07
3.98295e-07
3.99748e-07
3.98617e-07
3.99442e-07
3.98554e-07
3.99689e-07
3.98372e-07
3.99536e-07
3.98457e-07
3.98914e-07
3.98666e-07
3.99145e-07
3.98672e-07
3.99179e-07
3.98541e-07
3.98769e-07
3.98267e-07
3.98957e-07
3.98036e-07
3.98943e-07
3.9832e-07
3.99019e-07
3.98278e-07
3.99353e-07
3.97653e-07
4.00422e-07
3.97495e-07
4.00165e-07
3.96708e-07
4.00962e-07
3.72845e-07
4.1986e-07
3.97448e-07
3.99153e-07
3.97433e-07
3.98451e-07
3.98435e-07
3.98405e-07
3.98406e-07
3.98611e-07
3.98395e-07
3.98797e-07
3.98228e-07
3.99261e-07
3.97568e-07
3.99149e-07
3.9792e-07
3.99821e-07
3.98199e-07
3.99189e-07
3.98213e-07
3.98788e-07
3.98492e-07
3.9906e-07
3.98776e-07
3.9879e-07
3.98841e-07
3.98548e-07
3.98212e-07
3.9844e-07
3.98388e-07
3.98763e-07
3.98217e-07
3.99209e-07
3.98277e-07
3.98894e-07
3.98225e-07
3.99248e-07
3.9844e-07
3.99143e-07
3.98398e-07
3.99359e-07
3.98212e-07
3.98964e-07
3.98395e-07
3.99376e-07
3.98155e-07
3.99445e-07
3.97993e-07
3.99682e-07
3.97643e-07
4.00417e-07
3.96715e-07
4.01812e-07
3.73307e-07
4.19186e-07
3.99306e-07
3.98259e-07
3.99973e-07
3.98499e-07
3.98389e-07
3.98451e-07
3.98435e-07
3.98435e-07
3.98738e-07
3.98459e-07
3.99223e-07
3.98041e-07
4.00112e-07
3.98419e-07
3.99783e-07
3.98213e-07
3.99107e-07
3.98646e-07
4.0002e-07
3.98306e-07
3.99766e-07
3.97998e-07
3.99769e-07
3.97871e-07
3.99461e-07
3.98311e-07
3.99261e-07
3.98986e-07
3.99703e-07
3.98225e-07
3.99448e-07
3.98518e-07
3.98916e-07
3.98461e-07
3.99082e-07
3.98599e-07
3.99093e-07
3.98697e-07
3.98641e-07
3.98288e-07
3.99019e-07
3.9819e-07
3.98824e-07
3.98309e-07
3.9911e-07
3.9829e-07
3.99078e-07
3.97797e-07
3.99966e-07
3.97584e-07
4.0042e-07
3.96287e-07
4.00986e-07
3.73509e-07
4.20599e-07
3.97282e-07
3.98538e-07
3.97753e-07
3.98508e-07
3.98369e-07
3.98424e-07
3.9844e-07
3.9874e-07
3.98313e-07
3.99265e-07
3.97944e-07
3.99453e-07
3.98303e-07
3.98522e-07
3.9753e-07
4.00264e-07
3.9838e-07
3.98999e-07
3.98175e-07
3.9903e-07
3.98007e-07
3.99118e-07
3.98799e-07
3.98787e-07
3.99368e-07
3.99321e-07
3.98739e-07
3.98733e-07
3.98125e-07
3.99065e-07
3.984e-07
3.99222e-07
3.98144e-07
3.99332e-07
3.98406e-07
3.99069e-07
3.97982e-07
3.98592e-07
3.98366e-07
3.99131e-07
3.98365e-07
3.99127e-07
3.98288e-07
3.98835e-07
3.98122e-07
3.99234e-07
3.98354e-07
3.99493e-07
3.98028e-07
3.99745e-07
3.9728e-07
4.00956e-07
3.96354e-07
4.01498e-07
3.7226e-07
4.19751e-07
3.98985e-07
3.96527e-07
3.98505e-07
3.97741e-07
3.98356e-07
3.98407e-07
3.98577e-07
3.98485e-07
3.98925e-07
3.98169e-07
3.99745e-07
3.98228e-07
3.99091e-07
3.98337e-07
4.00298e-07
3.97969e-07
3.99888e-07
3.99141e-07
4.00057e-07
3.98196e-07
4.0105e-07
3.98692e-07
3.98265e-07
3.98345e-07
3.99207e-07
3.97604e-07
3.99372e-07
3.98104e-07
3.99098e-07
3.98857e-07
3.99325e-07
3.98388e-07
3.98877e-07
3.98375e-07
3.98763e-07
3.98041e-07
3.99253e-07
3.98958e-07
3.99421e-07
3.98575e-07
3.99002e-07
3.98269e-07
3.99097e-07
3.98419e-07
3.98894e-07
3.98332e-07
3.99035e-07
3.98085e-07
3.99274e-07
3.97848e-07
3.99687e-07
3.97055e-07
4.01112e-07
3.9651e-07
4.01312e-07
3.72782e-07
4.20255e-07
3.97677e-07
4.01157e-07
3.96384e-07
3.98721e-07
3.98418e-07
3.98516e-07
3.98518e-07
3.98543e-07
3.98392e-07
3.9951e-07
3.97731e-07
4.00106e-07
3.97677e-07
3.99736e-07
3.98287e-07
4.00021e-07
3.97881e-07
3.9761e-07
3.97869e-07
3.98815e-07
3.98181e-07
3.98249e-07
3.98741e-07
3.99548e-07
3.98604e-07
3.99049e-07
3.99184e-07
3.9866e-07
3.98846e-07
3.99045e-07
3.98194e-07
3.98818e-07
3.98352e-07
3.98976e-07
3.98245e-07
3.98801e-07
3.98745e-07
3.9945e-07
3.9784e-07
3.98658e-07
3.98605e-07
3.98874e-07
3.98312e-07
3.98939e-07
3.98342e-07
3.98853e-07
3.98302e-07
3.99166e-07
3.9806e-07
3.99563e-07
3.98203e-07
3.99899e-07
3.97354e-07
4.00737e-07
3.96046e-07
4.0199e-07
3.72377e-07
4.20332e-07
3.98706e-07
3.9732e-07
4.00588e-07
3.98682e-07
3.98503e-07
3.98544e-07
3.98514e-07
3.984e-07
3.98442e-07
3.98245e-07
3.99869e-07
3.97327e-07
4.00332e-07
3.9748e-07
3.99632e-07
3.97941e-07
3.9927e-07
3.98384e-07
4.0121e-07
3.99031e-07
3.99373e-07
3.98662e-07
3.99123e-07
3.98695e-07
3.99952e-07
3.98457e-07
3.98946e-07
3.98271e-07
3.99219e-07
3.98225e-07
3.99231e-07
3.98424e-07
3.99433e-07
3.98638e-07
3.99173e-07
3.98374e-07
3.99582e-07
3.97687e-07
3.98369e-07
3.98808e-07
3.99081e-07
3.98291e-07
3.99248e-07
3.98487e-07
3.99018e-07
3.98443e-07
3.99024e-07
3.98364e-07
3.99012e-07
3.98353e-07
3.99285e-07
3.97899e-07
3.99906e-07
3.97168e-07
4.00749e-07
3.9623e-07
4.01131e-07
3.72435e-07
4.20817e-07
3.97485e-07
3.98465e-07
3.98622e-07
3.98435e-07
3.98461e-07
3.98505e-07
3.98469e-07
3.98442e-07
3.98356e-07
3.991e-07
3.97649e-07
4.00337e-07
3.97726e-07
4.01284e-07
3.98605e-07
3.98597e-07
3.98668e-07
3.99524e-07
3.97743e-07
3.98433e-07
3.98256e-07
3.98773e-07
3.98753e-07
3.99091e-07
3.9842e-07
3.98316e-07
3.98796e-07
3.99404e-07
3.98809e-07
3.98979e-07
3.98626e-07
3.98981e-07
3.98504e-07
3.98665e-07
3.98324e-07
3.99068e-07
3.98572e-07
3.98558e-07
3.989e-07
3.99673e-07
3.97827e-07
3.98871e-07
3.98465e-07
3.98709e-07
3.98187e-07
3.99046e-07
3.98184e-07
3.9872e-07
3.98167e-07
3.9914e-07
3.9825e-07
3.99304e-07
3.983e-07
3.99933e-07
3.97687e-07
4.0068e-07
3.96452e-07
4.01979e-07
3.71695e-07
4.19907e-07
3.99129e-07
3.98268e-07
3.9789e-07
3.98409e-07
3.98443e-07
3.9836e-07
3.98452e-07
3.9841e-07
3.98707e-07
3.98289e-07
3.99852e-07
3.97735e-07
3.99588e-07
3.97441e-07
3.9941e-07
3.97902e-07
3.99672e-07
3.98278e-07
3.99616e-07
3.98922e-07
3.99782e-07
3.99115e-07
3.99673e-07
3.98301e-07
3.99391e-07
3.9874e-07
3.99447e-07
3.98451e-07
3.9878e-07
3.98585e-07
4.00347e-07
3.98705e-07
3.99112e-07
3.9829e-07
3.9926e-07
3.98548e-07
3.99209e-07
3.98336e-07
3.99411e-07
3.97635e-07
3.988e-07
3.9871e-07
3.99036e-07
3.98255e-07
3.99242e-07
3.98449e-07
3.99054e-07
3.98214e-07
3.99064e-07
3.98377e-07
3.98825e-07
3.98087e-07
3.98984e-07
3.98124e-07
3.99678e-07
3.97568e-07
4.00291e-07
3.95983e-07
4.01093e-07
3.72617e-07
4.20134e-07
3.97826e-07
3.98365e-07
3.98392e-07
3.988e-07
3.98502e-07
3.98435e-07
3.9849e-07
3.98398e-07
3.98278e-07
3.99152e-07
3.9744e-07
3.99771e-07
3.97708e-07
3.99817e-07
3.98277e-07
4.00239e-07
3.98497e-07
3.98892e-07
3.98424e-07
3.98934e-07
3.97883e-07
3.99315e-07
3.97938e-07
3.98864e-07
3.98782e-07
3.9873e-07
3.98786e-07
3.98808e-07
3.98797e-07
3.98014e-07
3.985e-07
3.98127e-07
3.98605e-07
3.99007e-07
3.98688e-07
3.98757e-07
3.98442e-07
3.98937e-07
3.98631e-07
3.98954e-07
3.9879e-07
3.9918e-07
3.9813e-07
3.98797e-07
3.9823e-07
3.98974e-07
3.98188e-07
3.98891e-07
3.98164e-07
3.98902e-07
3.9831e-07
3.99412e-07
3.98414e-07
3.99312e-07
3.9837e-07
3.98852e-07
3.98045e-07
4.00797e-07
3.96399e-07
4.01461e-07
3.72506e-07
4.19866e-07
3.98752e-07
3.98772e-07
3.99078e-07
3.9836e-07
3.98433e-07
3.98378e-07
3.98462e-07
3.98432e-07
3.98526e-07
3.98483e-07
4.00116e-07
3.97329e-07
4.00264e-07
3.96817e-07
3.99948e-07
3.97701e-07
4.00684e-07
3.97784e-07
3.99372e-07
3.9871e-07
4.00035e-07
3.98158e-07
3.9972e-07
3.98543e-07
3.99912e-07
3.9871e-07
3.99613e-07
3.9884e-07
3.9925e-07
3.98396e-07
3.99692e-07
3.98695e-07
3.99368e-07
3.98389e-07
3.98739e-07
3.98289e-07
3.9929e-07
3.98362e-07
3.99235e-07
3.97862e-07
3.99364e-07
3.97882e-07
3.98939e-07
3.98468e-07
3.9923e-07
3.98266e-07
3.99277e-07
3.9839e-07
3.98946e-07
3.98309e-07
3.99023e-07
3.98307e-07
3.99004e-07
3.97985e-07
3.98876e-07
3.98354e-07
3.99656e-07
3.97442e-07
4.00351e-07
3.96681e-07
4.00507e-07
3.7259e-07
4.20809e-07
3.97889e-07
3.98328e-07
3.9751e-07
3.98504e-07
3.98351e-07
3.98528e-07
3.984e-07
3.98405e-07
3.98445e-07
3.98925e-07
3.97769e-07
4.00217e-07
3.97544e-07
4.0097e-07
3.98465e-07
3.99801e-07
3.98458e-07
3.99554e-07
3.98542e-07
3.9928e-07
3.9808e-07
3.99081e-07
3.98755e-07
3.98854e-07
3.98697e-07
3.98569e-07
3.98777e-07
3.98422e-07
3.98839e-07
3.98664e-07
3.9857e-07
3.98249e-07
3.98883e-07
3.98702e-07
3.98747e-07
3.99435e-07
3.9855e-07
3.99502e-07
3.98293e-07
3.98701e-07
3.98751e-07
3.9922e-07
3.98534e-07
3.99109e-07
3.98318e-07
3.9897e-07
3.97988e-07
3.98907e-07
3.98163e-07
3.98882e-07
3.98147e-07
3.98731e-07
3.98335e-07
3.99344e-07
3.98097e-07
3.9935e-07
3.98382e-07
3.99258e-07
3.97898e-07
4.00444e-07
3.96661e-07
4.01917e-07
3.72146e-07
4.19355e-07
3.98521e-07
3.97986e-07
3.99116e-07
3.9847e-07
3.98517e-07
3.98187e-07
3.98413e-07
3.98466e-07
3.98537e-07
3.98554e-07
3.99459e-07
3.98182e-07
3.99755e-07
3.97962e-07
3.99896e-07
3.98062e-07
3.9974e-07
3.97512e-07
4.00168e-07
3.98544e-07
3.98878e-07
3.98651e-07
3.9887e-07
3.98433e-07
3.99271e-07
3.98323e-07
3.99597e-07
3.98466e-07
3.99562e-07
3.98511e-07
3.99305e-07
3.98665e-07
4.00002e-07
3.98779e-07
3.98996e-07
3.98343e-07
3.98554e-07
3.98274e-07
3.99058e-07
3.984e-07
3.99206e-07
3.97944e-07
3.99123e-07
3.97956e-07
3.98864e-07
3.98443e-07
3.99254e-07
3.98366e-07
3.99111e-07
3.98566e-07
3.98988e-07
3.9843e-07
3.99031e-07
3.98328e-07
3.99109e-07
3.97947e-07
3.98978e-07
3.98313e-07
3.99386e-07
3.97891e-07
4.00448e-07
3.96471e-07
4.01225e-07
3.73198e-07
4.20271e-07
3.97743e-07
3.98771e-07
3.97882e-07
3.98576e-07
3.97611e-07
3.98443e-07
3.98523e-07
3.98405e-07
3.98435e-07
3.99056e-07
3.98056e-07
3.99333e-07
3.97673e-07
4.00146e-07
3.97923e-07
3.99073e-07
3.9826e-07
4.00567e-07
3.98802e-07
3.99126e-07
3.99198e-07
3.99179e-07
3.98821e-07
3.99378e-07
3.98371e-07
3.99252e-07
3.98529e-07
3.98696e-07
3.99e-07
3.98457e-07
3.98889e-07
3.98643e-07
3.98663e-07
3.97737e-07
3.98746e-07
3.99009e-07
3.98777e-07
3.99465e-07
3.98831e-07
3.98067e-07
3.98742e-07
3.98676e-07
3.98701e-07
3.99021e-07
3.98673e-07
3.98966e-07
3.98274e-07
3.99225e-07
3.97975e-07
3.98643e-07
3.98144e-07
3.98732e-07
3.98294e-07
3.98638e-07
3.98364e-07
3.99242e-07
3.98197e-07
3.98935e-07
3.98429e-07
3.99179e-07
3.97465e-07
4.00451e-07
3.97017e-07
4.01767e-07
3.72992e-07
4.19447e-07
3.98616e-07
3.97679e-07
3.98567e-07
3.97499e-07
3.99179e-07
3.98564e-07
3.98421e-07
3.98444e-07
3.98466e-07
3.98343e-07
3.99672e-07
3.97931e-07
3.99921e-07
3.97649e-07
3.99711e-07
3.97684e-07
4.00083e-07
3.97456e-07
3.9858e-07
3.97843e-07
3.99255e-07
3.9791e-07
3.99146e-07
3.98205e-07
3.99111e-07
3.98525e-07
3.9898e-07
3.98559e-07
3.99794e-07
3.99168e-07
3.99336e-07
3.99206e-07
3.99151e-07
3.98567e-07
3.99289e-07
3.98156e-07
3.98843e-07
3.98385e-07
3.98649e-07
3.98583e-07
3.99699e-07
3.98474e-07
3.9932e-07
3.98102e-07
3.98919e-07
3.9809e-07
3.99087e-07
3.98289e-07
3.9926e-07
3.98357e-07
3.99012e-07
3.98505e-07
3.98997e-07
3.9817e-07
3.99098e-07
3.98375e-07
3.99212e-07
3.98368e-07
3.99087e-07
3.98033e-07
3.99749e-07
3.97691e-07
4.00437e-07
3.96249e-07
4.01405e-07
3.73278e-07
4.19875e-07
3.9784e-07
3.98824e-07
3.98382e-07
3.99603e-07
3.98411e-07
3.98319e-07
3.98468e-07
3.98403e-07
3.98447e-07
3.9903e-07
3.97591e-07
3.99779e-07
3.97681e-07
3.99972e-07
3.98046e-07
4.00392e-07
3.98319e-07
3.99431e-07
3.9886e-07
3.99729e-07
3.98758e-07
3.99757e-07
3.99528e-07
3.99521e-07
3.98908e-07
3.98949e-07
3.98861e-07
3.99229e-07
3.98704e-07
3.98246e-07
3.98471e-07
3.98765e-07
3.98139e-07
3.98671e-07
3.98758e-07
3.98353e-07
3.99162e-07
3.98889e-07
3.98816e-07
3.98964e-07
3.98748e-07
3.981e-07
3.9845e-07
3.98805e-07
3.9862e-07
3.99195e-07
3.9843e-07
3.98932e-07
3.98285e-07
3.99114e-07
3.97929e-07
3.98707e-07
3.98287e-07
3.9893e-07
3.98263e-07
3.98757e-07
3.98273e-07
3.99085e-07
3.98093e-07
3.99138e-07
3.98244e-07
3.99275e-07
3.97887e-07
4.00484e-07
3.96123e-07
4.0216e-07
3.72785e-07
4.19173e-07
3.98706e-07
3.97767e-07
3.98277e-07
3.97957e-07
3.98298e-07
3.98399e-07
3.98419e-07
3.98349e-07
3.9844e-07
3.98514e-07
3.99737e-07
3.97787e-07
3.99479e-07
3.9798e-07
4.00008e-07
3.97738e-07
3.99925e-07
3.98505e-07
3.99697e-07
3.97758e-07
4.00047e-07
3.97624e-07
3.9936e-07
3.97313e-07
3.98656e-07
3.98705e-07
3.99035e-07
3.9859e-07
3.99035e-07
3.98609e-07
3.99673e-07
3.99404e-07
3.99024e-07
3.99526e-07
3.99049e-07
3.98688e-07
3.99036e-07
3.98332e-07
3.98724e-07
3.98473e-07
3.98895e-07
3.98595e-07
3.9919e-07
3.98573e-07
3.99338e-07
3.98295e-07
3.98935e-07
3.98189e-07
3.98961e-07
3.98333e-07
3.99214e-07
3.98462e-07
3.98836e-07
3.98434e-07
3.98932e-07
3.98165e-07
3.99097e-07
3.98353e-07
3.99569e-07
3.98247e-07
3.99317e-07
3.98081e-07
3.99463e-07
3.9745e-07
4.01237e-07
3.96028e-07
4.02749e-07
3.7289e-07
4.20202e-07
3.97924e-07
3.99485e-07
3.98385e-07
3.98388e-07
3.98456e-07
3.98478e-07
3.98487e-07
3.98368e-07
3.98439e-07
3.98691e-07
3.98239e-07
3.99923e-07
3.98034e-07
3.99929e-07
3.98456e-07
4.00195e-07
3.98326e-07
3.99705e-07
3.98462e-07
3.9956e-07
3.99201e-07
3.99047e-07
3.98795e-07
3.9897e-07
4.00248e-07
3.99293e-07
3.98756e-07
3.99221e-07
3.98722e-07
3.99123e-07
3.99028e-07
3.98279e-07