/*--------------------------------*- C++ -*----------------------------------*\
| =========                 |                                                 |
| \\      /  F ield         | OpenFOAM: The Open Source CFD Toolbox           |
|  \\    /   O peration     | Version:  2206                                  |
|   \\  /    A nd           | Website:  www.openfoam.com                      |
|    \\/     M anipulation  |                                                 |
\*---------------------------------------------------------------------------*/
FoamFile
{
    version     2.0;
    format      ascii;
    arch        "LSB;label=32;scalar=64";
    class       volScalarField;
    location    "180";
    object      nuTilda;
}
// * * * * * * * * * * * * * * * * * * * * * * * * * * * * * * * * * * * * * //

dimensions      [0 2 -1 0 0 0 0];

internalField   nonuniform List<scalar> 
93840
(
4.64143e-07
2.31262e-07
4.63654e-07
4.044e-07
2.24819e-07
4.52626e-07
3.57682e-07
4.22343e-07
2.74096e-07
4.39758e-07
4.2089e-07
3.80576e-07
4.17407e-07
3.17485e-07
4.3913e-07
3.85872e-07
4.0505e-07
3.85593e-07
4.10847e-07
3.20264e-07
4.18482e-07
4.0091e-07
3.94696e-07
4.05523e-07
3.85505e-07
4.15258e-07
3.53939e-07
4.39532e-07
3.96734e-07
4.01102e-07
3.92373e-07
4.05863e-07
3.93302e-07
4.11633e-07
3.39001e-07
4.16936e-07
3.99955e-07
3.89793e-07
4.01233e-07
3.96517e-07
4.0107e-07
3.94233e-07
4.0769e-07
3.45913e-07
4.37763e-07
3.97095e-07
4.07571e-07
3.96895e-07
3.99249e-07
3.97218e-07
4.00739e-07
3.91108e-07
4.0727e-07
3.41258e-07
4.22453e-07
3.99609e-07
3.9299e-07
4.01985e-07
3.95387e-07
4.0056e-07
3.98151e-07
3.99555e-07
3.9466e-07
4.05748e-07
3.54667e-07
4.38935e-07
3.9627e-07
4.01082e-07
3.94325e-07
4.02552e-07
3.97888e-07
3.99124e-07
3.97754e-07
4.0242e-07
3.91546e-07
4.00003e-07
3.49271e-07
4.21244e-07
3.99502e-07
3.94275e-07
4.00315e-07
3.97198e-07
3.99845e-07
3.99063e-07
4.00868e-07
3.94741e-07
4.02459e-07
3.9614e-07
4.01366e-07
3.51847e-07
4.32152e-07
3.98017e-07
4.00253e-07
3.95269e-07
3.98339e-07
3.97407e-07
3.98753e-07
3.98412e-07
4.01906e-07
3.98093e-07
4.01882e-07
3.9581e-07
4.06166e-07
3.4958e-07
4.2537e-07
3.98212e-07
3.97222e-07
4.00192e-07
3.988e-07
3.98954e-07
3.9857e-07
3.98961e-07
3.97554e-07
3.98913e-07
3.97182e-07
3.99679e-07
3.9366e-07
4.05995e-07
3.53836e-07
4.32128e-07
3.9824e-07
3.99235e-07
3.97347e-07
3.98398e-07
3.9822e-07
3.98706e-07
3.98763e-07
3.99825e-07
3.97724e-07
4.01201e-07
3.97487e-07
4.01962e-07
3.93257e-07
4.02128e-07
3.50031e-07
4.25265e-07
3.984e-07
3.96829e-07
3.9988e-07
3.98457e-07
3.98965e-07
3.98415e-07
3.98514e-07
3.98364e-07
4.00239e-07
3.9784e-07
3.99666e-07
3.97579e-07
3.99652e-07
3.95875e-07
4.04748e-07
3.52821e-07
4.29892e-07
3.98173e-07
3.99325e-07
3.96317e-07
3.98504e-07
3.97104e-07
3.98541e-07
3.98447e-07
3.98898e-07
3.97463e-07
3.99959e-07
3.97821e-07
4.00006e-07
3.97038e-07
4.02397e-07
3.94438e-07
4.06048e-07
3.5231e-07
4.25041e-07
3.98196e-07
3.97909e-07
3.99623e-07
3.97561e-07
3.99676e-07
3.98433e-07
3.99023e-07
3.978e-07
3.99731e-07
3.98447e-07
3.99529e-07
3.97985e-07
4.00298e-07
3.97707e-07
3.99238e-07
3.93343e-07
4.05295e-07
3.55559e-07
4.2877e-07
3.98262e-07
3.98548e-07
3.9736e-07
3.99633e-07
3.97804e-07
3.98288e-07
3.98411e-07
3.99756e-07
3.98173e-07
3.99123e-07
3.97642e-07
3.99927e-07
3.97969e-07
4.0085e-07
3.97831e-07
4.02734e-07
3.94992e-07
4.02832e-07
3.53961e-07
4.24293e-07
3.98348e-07
3.97928e-07
3.98797e-07
3.98008e-07
3.98974e-07
3.98552e-07
3.98793e-07
3.97865e-07
3.9952e-07
3.98456e-07
3.99984e-07
3.97572e-07
4.0032e-07
3.98199e-07
3.9947e-07
3.97088e-07
3.99358e-07
3.95964e-07
4.04751e-07
3.55113e-07
4.28522e-07
3.98139e-07
3.98599e-07
3.97798e-07
3.98523e-07
3.97634e-07
3.98374e-07
3.98545e-07
3.99111e-07
3.97791e-07
3.98833e-07
3.97592e-07
4.00451e-07
3.98121e-07
3.9967e-07
3.96164e-07
4.00344e-07
3.96877e-07
4.01986e-07
3.93347e-07
4.04987e-07
3.53142e-07
4.25437e-07
3.9852e-07
3.9784e-07
3.9847e-07
3.98307e-07
3.987e-07
3.98495e-07
3.98758e-07
3.9748e-07
3.99855e-07
3.97695e-07
4.00129e-07
3.96902e-07
3.99777e-07
3.98246e-07
4.00904e-07
3.98707e-07
4.01117e-07
3.96983e-07
4.00023e-07
3.95309e-07
4.05174e-07
3.56878e-07
4.29754e-07
3.98012e-07
3.98767e-07
3.98341e-07
3.98996e-07
3.98114e-07
3.98352e-07
3.98506e-07
4.00217e-07
3.96209e-07
3.99346e-07
3.97533e-07
4.00171e-07
3.97407e-07
3.98842e-07
3.96772e-07
4.00445e-07
3.95841e-07
4.009e-07
3.97424e-07
4.02473e-07
3.92913e-07
4.03844e-07
3.54968e-07
4.29269e-07
3.98273e-07
3.97746e-07
3.98462e-07
3.9747e-07
3.98666e-07
3.98503e-07
3.98611e-07
3.97988e-07
4.01502e-07
3.9856e-07
4.00562e-07
3.97286e-07
4.00615e-07
3.97798e-07
4.00949e-07
3.98558e-07
4.00701e-07
3.98802e-07
4.00233e-07
3.95962e-07
3.99973e-07
3.95629e-07
4.02251e-07
3.56603e-07
4.34612e-07
3.98032e-07
3.98715e-07
3.9821e-07
3.98892e-07
3.97822e-07
3.98484e-07
3.98339e-07
3.98615e-07
3.96991e-07
3.98599e-07
3.97062e-07
3.99297e-07
3.97018e-07
3.99866e-07
3.97397e-07
3.9872e-07
3.96408e-07
4.00182e-07
3.96321e-07
4.00942e-07
3.97601e-07
4.03184e-07
3.93978e-07
4.0172e-07
3.49907e-07
4.18525e-07
3.98548e-07
3.98265e-07
3.98552e-07
3.97498e-07
3.98619e-07
3.98316e-07
3.9843e-07
3.98398e-07
3.99055e-07
3.98543e-07
3.99721e-07
3.98202e-07
4.00523e-07
3.97113e-07
3.9963e-07
3.99024e-07
3.99854e-07
3.98403e-07
4.00254e-07
3.99262e-07
3.99448e-07
3.97036e-07
4.01356e-07
3.96678e-07
4.03509e-07
3.56766e-07
4.28613e-07
3.98118e-07
3.98503e-07
3.98309e-07
3.99157e-07
3.98457e-07
3.9879e-07
3.98353e-07
3.99172e-07
3.978e-07
3.99684e-07
3.97351e-07
3.99505e-07
3.97244e-07
3.99964e-07
3.97413e-07
3.98918e-07
3.97603e-07
3.99712e-07
3.98427e-07
3.99704e-07
3.97105e-07
4.00023e-07
3.97832e-07
4.01276e-07
3.94715e-07
4.03805e-07
3.59896e-07
4.24598e-07
3.98331e-07
3.98312e-07
3.9873e-07
3.97904e-07
3.98528e-07
3.98051e-07
3.98632e-07
3.97459e-07
3.99808e-07
3.97236e-07
3.99576e-07
3.97776e-07
3.99853e-07
3.98088e-07
4.00903e-07
3.9795e-07
4.00141e-07
3.98368e-07
3.99719e-07
3.97647e-07
4.00881e-07
3.98419e-07
4.00255e-07
3.9728e-07
3.99907e-07
3.96215e-07
4.02988e-07
3.57162e-07
4.28173e-07
3.98348e-07
3.98484e-07
3.97721e-07
3.9888e-07
3.984e-07
3.98917e-07
3.98598e-07
4.00291e-07
3.95823e-07
4.00044e-07
3.97293e-07
3.99712e-07
3.97567e-07
3.99155e-07
3.97611e-07
3.99266e-07
3.97834e-07
3.99095e-07
3.97292e-07
3.99316e-07
3.97122e-07
3.99751e-07
3.97696e-07
3.99949e-07
3.98567e-07
4.00853e-07
3.93782e-07
4.04107e-07
3.58093e-07
4.24984e-07
3.98776e-07
3.98181e-07
3.99164e-07
3.98501e-07
3.98688e-07
3.98032e-07
3.98432e-07
3.98069e-07
4.01879e-07
3.9833e-07
4.00107e-07
3.97503e-07
3.99728e-07
3.98115e-07
4.00604e-07
3.97799e-07
4.00254e-07
3.98597e-07
4.00116e-07
4.00185e-07
4.00263e-07
3.987e-07
3.99858e-07
3.98496e-07
3.99489e-07
3.9754e-07
4.00509e-07
3.95983e-07
4.01164e-07
3.60353e-07
4.27323e-07
3.97822e-07
3.98759e-07
3.97458e-07
3.98548e-07
3.98283e-07
3.99566e-07
3.98559e-07
3.9886e-07
3.96835e-07
3.98422e-07
3.97307e-07
4.00366e-07
3.97522e-07
3.98987e-07
3.97845e-07
3.99286e-07
3.97744e-07
3.99106e-07
3.96871e-07
3.98828e-07
3.96895e-07
3.98833e-07
3.97533e-07
3.99605e-07
3.98317e-07
3.99945e-07
3.97862e-07
4.01627e-07
3.96171e-07
4.00884e-07
3.57926e-07
4.25014e-07
3.98513e-07
3.97848e-07
3.98978e-07
3.98441e-07
3.98366e-07
3.96605e-07
3.98351e-07
3.98531e-07
3.9904e-07
3.98484e-07
4.00024e-07
3.97463e-07
3.99326e-07
3.9812e-07
3.99648e-07
3.98661e-07
3.99364e-07
3.98287e-07
4.00537e-07
3.99109e-07
3.99375e-07
3.98442e-07
3.99253e-07
3.99272e-07
3.99291e-07
3.97579e-07
3.99575e-07
3.96894e-07
4.00411e-07
3.96346e-07
4.02383e-07
3.5897e-07
4.26833e-07
3.98119e-07
3.98575e-07
3.98093e-07
3.98575e-07
3.98348e-07
3.99208e-07
3.98706e-07
3.98913e-07
3.98017e-07
3.99579e-07
3.97731e-07
4.00354e-07
3.97794e-07
3.98871e-07
3.97818e-07
3.98811e-07
3.97733e-07
3.9962e-07
3.98239e-07
3.99098e-07
3.96676e-07
3.99441e-07
3.98181e-07
3.9963e-07
3.97172e-07
4.0021e-07
3.98275e-07
4.00417e-07
3.97897e-07
4.01487e-07
3.9497e-07
4.02969e-07
3.59736e-07
4.26002e-07
3.98333e-07
3.97634e-07
3.98421e-07
3.98312e-07
3.98354e-07
3.98429e-07
3.98332e-07
3.98476e-07
3.99334e-07
3.97932e-07
3.99243e-07
3.97257e-07
3.99793e-07
3.98172e-07
4.00612e-07
3.98322e-07
3.99189e-07
3.98234e-07
3.98963e-07
3.9819e-07
3.9996e-07
3.9797e-07
4.00522e-07
3.98535e-07
3.9939e-07
3.99191e-07
3.99533e-07
3.97943e-07
4.00298e-07
3.97025e-07
4.01338e-07
3.96848e-07
4.01221e-07
3.59419e-07
4.26447e-07
3.97964e-07
3.99163e-07
3.98398e-07
3.98336e-07
3.9831e-07
3.98324e-07
3.98565e-07
3.98927e-07
3.98228e-07
3.99534e-07
3.97829e-07
3.99871e-07
3.97662e-07
3.99645e-07
3.97785e-07
3.9865e-07
3.98291e-07
3.996e-07
3.98195e-07
3.9981e-07
3.97717e-07
3.99656e-07
3.96405e-07
3.98556e-07
3.97812e-07
3.98976e-07
3.9743e-07
3.99791e-07
3.97879e-07
3.99819e-07
3.97633e-07
4.01153e-07
3.94049e-07
4.01729e-07
3.5874e-07
4.25349e-07
3.98389e-07
3.97928e-07
3.98556e-07
3.98322e-07
3.98433e-07
3.98321e-07
3.98465e-07
3.98294e-07
3.99108e-07
3.98186e-07
3.99466e-07
3.97363e-07
4.00106e-07
3.97973e-07
4.00185e-07
3.97964e-07
3.99431e-07
3.98031e-07
3.99575e-07
3.98403e-07
3.99052e-07
3.98811e-07
4.01138e-07
4.00242e-07
3.99191e-07
3.989e-07
3.99851e-07
3.98745e-07
3.9955e-07
3.98085e-07
4.00514e-07
3.98195e-07
4.01114e-07
3.97457e-07
4.02928e-07
3.59454e-07
4.28071e-07
3.98305e-07
3.98736e-07
3.98453e-07
3.98671e-07
3.98374e-07
3.98563e-07
3.98627e-07
3.98905e-07
3.98037e-07
3.99281e-07
3.98013e-07
3.9998e-07
3.97917e-07
3.99104e-07
3.97509e-07
3.99738e-07
3.98806e-07
3.99335e-07
3.98326e-07
3.98734e-07
3.97917e-07
3.99105e-07
3.96672e-07
3.99123e-07
3.96942e-07
3.99089e-07
3.97979e-07
3.98323e-07
3.98009e-07
3.9944e-07
3.97488e-07
3.98805e-07
3.97842e-07
4.01641e-07
3.94898e-07
4.01938e-07
3.58077e-07
4.25658e-07
3.9857e-07
3.98027e-07
3.98852e-07
3.97903e-07
3.98563e-07
3.98706e-07
3.98781e-07
3.98732e-07
3.99818e-07
3.97834e-07
3.9944e-07
3.97974e-07
4.00054e-07
3.97844e-07
4.00162e-07
3.97924e-07
3.99176e-07
3.98003e-07
3.99061e-07
3.9902e-07
3.99553e-07
3.98444e-07
3.99587e-07
3.99281e-07
3.99604e-07
3.9975e-07
3.99214e-07
3.98867e-07
3.99918e-07
3.98503e-07
4.00169e-07
3.99493e-07
4.00028e-07
3.9692e-07
4.00835e-07
3.96701e-07
4.03711e-07
3.61212e-07
4.2718e-07
3.98354e-07
3.99157e-07
3.98453e-07
3.9939e-07
3.98751e-07
3.98887e-07
3.9889e-07
3.98818e-07
3.98458e-07
3.99571e-07
3.98057e-07
3.99397e-07
3.97618e-07
3.99923e-07
3.97672e-07
3.99968e-07
3.98423e-07
3.98886e-07
3.98155e-07
3.99328e-07
3.97333e-07
3.99126e-07
3.9813e-07
3.99254e-07
3.9697e-07
3.98356e-07
3.97723e-07
3.98397e-07
3.98256e-07
3.98507e-07
3.98101e-07
3.99326e-07
3.97979e-07
4.0004e-07
3.97603e-07
4.00312e-07
3.94937e-07
4.02258e-07
3.60629e-07
4.23903e-07
3.98427e-07
3.98481e-07
3.99082e-07
3.98287e-07
3.98822e-07
3.98896e-07
3.98736e-07
3.98648e-07
3.99066e-07
3.98006e-07
3.99578e-07
3.98024e-07
3.99864e-07
3.97837e-07
4.00145e-07
3.98096e-07
3.99461e-07
3.97972e-07
4.00195e-07
3.98417e-07
3.99724e-07
3.98904e-07
3.992e-07
3.98422e-07
3.99563e-07
3.99445e-07
3.99659e-07
3.98435e-07
3.99807e-07
3.98453e-07
3.99555e-07
3.98675e-07
3.98989e-07
3.99128e-07
3.99979e-07
3.97835e-07
4.00241e-07
3.96438e-07
4.01124e-07
3.60683e-07
4.26359e-07
3.98282e-07
3.98638e-07
3.98053e-07
3.99137e-07
3.98992e-07
3.98867e-07
3.9853e-07
3.98526e-07
3.98582e-07
3.99519e-07
3.97937e-07
3.99958e-07
3.97724e-07
3.99957e-07
3.97749e-07
3.99283e-07
3.98335e-07
3.99258e-07
3.98579e-07
3.9891e-07
3.97517e-07
3.9911e-07
3.97603e-07
3.99005e-07
3.98347e-07
3.99181e-07
3.98009e-07
4.00023e-07
3.97991e-07
3.98487e-07
3.9874e-07
3.98976e-07
3.9815e-07
3.99267e-07
3.97562e-07
4.00396e-07
3.97018e-07
4.01368e-07
3.95868e-07
4.04224e-07
3.60284e-07
4.24689e-07
3.98546e-07
3.98434e-07
3.98771e-07
3.98153e-07
3.98629e-07
3.98534e-07
3.98426e-07
3.9855e-07
3.98958e-07
3.97977e-07
3.9984e-07
3.97906e-07
4.00265e-07
3.99139e-07
4.01555e-07
3.98019e-07
3.99714e-07
3.98649e-07
3.9891e-07
3.98843e-07
4.0032e-07
3.98097e-07
3.99819e-07
3.98496e-07
3.99812e-07
3.98361e-07
3.99164e-07
3.98187e-07
3.99384e-07
3.9899e-07
3.99233e-07
3.9857e-07
3.99047e-07
3.9918e-07
3.98994e-07
3.98561e-07
4.00112e-07
3.97488e-07
4.01634e-07
3.95361e-07
4.02882e-07
3.61874e-07
4.25603e-07
3.98158e-07
3.98602e-07
3.98489e-07
3.99098e-07
3.98445e-07
3.9837e-07
3.9844e-07
3.98876e-07
3.98473e-07
3.99354e-07
3.97631e-07
3.99441e-07
3.97978e-07
3.98802e-07
3.97894e-07
3.96971e-07
3.98315e-07
3.99396e-07
3.97598e-07
3.98955e-07
3.98088e-07
3.99193e-07
3.97926e-07
3.99262e-07
3.98261e-07
3.98815e-07
3.98397e-07
3.98695e-07
3.98367e-07
3.9864e-07
3.98138e-07
3.99092e-07
3.98475e-07
3.99271e-07
3.97839e-07
3.99403e-07
3.97586e-07
4.00241e-07
3.9686e-07
4.00683e-07
3.95998e-07
4.0268e-07
3.61632e-07
4.24796e-07
3.98389e-07
3.97946e-07
3.98564e-07
3.97414e-07
3.9829e-07
3.98384e-07
3.9879e-07
3.97695e-07
3.99596e-07
3.98128e-07
3.99887e-07
3.97479e-07
3.99655e-07
3.98656e-07
3.99945e-07
3.98461e-07
4.0068e-07
3.98881e-07
4.00195e-07
3.99745e-07
3.99482e-07
3.98972e-07
4.0023e-07
3.98524e-07
3.99584e-07
3.98662e-07
3.99579e-07
3.98904e-07
3.99366e-07
3.98854e-07
3.99588e-07
3.9828e-07
3.98948e-07
3.98427e-07
3.98742e-07
3.98795e-07
3.9962e-07
3.9827e-07
3.99827e-07
3.97801e-07
4.00396e-07
3.96391e-07
4.01068e-07
3.6301e-07
4.25576e-07
3.9743e-07
3.98698e-07
3.98582e-07
3.99824e-07
3.98503e-07
3.98678e-07
3.98639e-07
4.00001e-07
3.95131e-07
3.9959e-07
3.97966e-07
4.00265e-07
3.97886e-07
3.99098e-07
3.9825e-07
3.99282e-07
3.99147e-07
3.98697e-07
3.99076e-07
3.97357e-07
3.98454e-07
3.98507e-07
3.98509e-07
3.99212e-07
3.98106e-07
3.98816e-07
3.98511e-07
3.98388e-07
3.98141e-07
3.99268e-07
3.97732e-07
3.99315e-07
3.98134e-07
3.9914e-07
3.98563e-07
3.99474e-07
3.98135e-07
3.99661e-07
3.9791e-07
3.99814e-07
3.97743e-07
3.99785e-07
3.95807e-07
4.00744e-07
3.6121e-07
4.25119e-07
3.99492e-07
3.97582e-07
3.98032e-07
3.97728e-07
3.98635e-07
3.98642e-07
3.98578e-07
3.98486e-07
4.0309e-07
3.99164e-07
3.99458e-07
3.97738e-07
3.9981e-07
3.97844e-07
3.99891e-07
3.98718e-07
4.00297e-07
3.98272e-07
4.00334e-07
3.9748e-07
4.00318e-07
3.98718e-07
3.99339e-07
3.97916e-07
3.99361e-07
3.98354e-07
3.99894e-07
3.98565e-07
3.99731e-07
3.98578e-07
3.9961e-07
3.98995e-07
3.98923e-07
3.98607e-07
3.99175e-07
3.98647e-07
3.99228e-07
3.98613e-07
3.9916e-07
3.98582e-07
4.0016e-07
3.97379e-07
4.00828e-07
3.96691e-07
4.02339e-07
3.59711e-07
4.25834e-07
3.97771e-07
3.9937e-07
3.9857e-07
3.98547e-07
3.98665e-07
3.98635e-07
3.98588e-07
3.98541e-07
3.96692e-07
3.97948e-07
3.97281e-07
3.99647e-07
3.98605e-07
3.99631e-07
3.98524e-07
3.98996e-07
3.98967e-07
3.98702e-07
3.99138e-07
3.98049e-07
3.99691e-07
3.98002e-07
3.98322e-07
3.99373e-07
3.98622e-07
3.99252e-07
3.98598e-07
3.98469e-07
3.97948e-07
3.99156e-07
3.97753e-07
3.98484e-07
3.98317e-07
3.99105e-07
3.98579e-07
3.98856e-07
3.9848e-07
3.99134e-07
3.98311e-07
3.99403e-07
3.97971e-07
4.00178e-07
3.97006e-07
4.00886e-07
3.9622e-07
4.05075e-07
3.60407e-07
4.24825e-07
3.9844e-07
3.97966e-07
3.98807e-07
3.98526e-07
3.98686e-07
3.98539e-07
3.98536e-07
3.9863e-07
3.98558e-07
3.9884e-07
4.0047e-07
3.98543e-07
3.99107e-07
3.97979e-07
3.99572e-07
3.98612e-07
3.98853e-07
3.98969e-07
3.99999e-07
3.98295e-07
3.99885e-07
3.98936e-07
4.0012e-07
3.99095e-07
3.99724e-07
3.98186e-07
3.99404e-07
3.9837e-07
3.99958e-07
3.98495e-07
3.9977e-07
3.98698e-07
3.99354e-07
3.9883e-07
3.99042e-07
3.98079e-07
3.99362e-07
3.98461e-07
3.99101e-07
3.98376e-07
3.99455e-07
3.98257e-07
4.00249e-07
3.97789e-07
3.997e-07
3.95233e-07
4.03506e-07
3.62276e-07
4.24571e-07
3.97648e-07
3.98795e-07
3.97862e-07
3.98487e-07
3.98567e-07
3.985e-07
3.98588e-07
3.98666e-07
3.98317e-07
3.99451e-07
3.97844e-07
3.99542e-07
3.97379e-07
3.99851e-07
3.98246e-07
3.991e-07
3.9778e-07
3.99586e-07
3.98726e-07
3.99389e-07
3.99049e-07
3.98675e-07
3.98324e-07
3.9856e-07
3.98704e-07
3.98832e-07
3.98318e-07
3.99276e-07
3.98562e-07
3.98523e-07
3.98358e-07
3.9953e-07
3.97924e-07
3.98902e-07
3.98378e-07
3.99573e-07
3.98555e-07
3.98829e-07
3.98687e-07
3.99308e-07
3.98055e-07
3.99078e-07
3.97859e-07
4.00591e-07
3.97351e-07
4.00573e-07
3.95716e-07
4.0236e-07
3.63959e-07
4.24462e-07
3.9953e-07
3.98104e-07
3.98464e-07
3.98746e-07
3.98696e-07
3.98628e-07
3.98492e-07
3.98561e-07
3.99082e-07
3.98247e-07
3.99319e-07
3.98246e-07
4.00641e-07
3.98115e-07
3.99842e-07
3.993e-07
4.0048e-07
3.98079e-07
3.9923e-07
3.98383e-07
3.99684e-07
3.9829e-07
3.99754e-07
3.98953e-07
3.99551e-07
3.97462e-07
3.99781e-07
3.98717e-07
3.99696e-07
3.98111e-07
3.99715e-07
3.98366e-07
3.99432e-07
3.9914e-07
3.99092e-07
3.98295e-07
3.99101e-07
3.98068e-07
3.98972e-07
3.98346e-07
3.99359e-07
3.98329e-07
3.99231e-07
3.97503e-07
4.00172e-07
3.96538e-07
4.00593e-07
3.96796e-07
4.00789e-07
3.62821e-07
4.25469e-07
3.97361e-07
3.9884e-07
3.99195e-07
3.98634e-07
3.98581e-07
3.98628e-07
3.98642e-07
3.98518e-07
3.98519e-07
3.99422e-07
3.98152e-07
3.99686e-07
3.97835e-07
3.99864e-07
3.98372e-07
3.99297e-07
3.96968e-07
3.98889e-07
3.98951e-07
3.98882e-07
3.9857e-07
3.99369e-07
3.98933e-07
3.98437e-07
3.98938e-07
3.99113e-07
3.99346e-07
3.99107e-07
3.97845e-07
3.98699e-07
3.98725e-07
3.98809e-07
3.98027e-07
3.99546e-07
3.97718e-07
3.98765e-07
3.98223e-07
3.9933e-07
3.9849e-07
3.98909e-07
3.98359e-07
3.99619e-07
3.98663e-07
3.99789e-07
3.97492e-07
4.00919e-07
3.97183e-07
4.00325e-07
3.96327e-07
4.00968e-07
3.61655e-07
4.24677e-07
3.9905e-07
3.97702e-07
3.97972e-07
3.98206e-07
3.98581e-07
3.98505e-07
3.98541e-07
3.98503e-07
3.98772e-07
3.9831e-07
3.99026e-07
3.98239e-07
3.99513e-07
3.98185e-07
3.99862e-07
3.98681e-07
4.00534e-07
3.98821e-07
3.99628e-07
3.98927e-07
3.99748e-07
3.98609e-07
3.99542e-07
3.99e-07
3.99719e-07
3.98105e-07
3.99832e-07
3.9813e-07
3.9959e-07
3.98763e-07
3.9945e-07
3.98693e-07
3.99338e-07
3.99071e-07
3.99134e-07
3.99007e-07
3.99317e-07
3.98474e-07
3.99259e-07
3.97947e-07
3.99248e-07
3.9839e-07
3.99148e-07
3.9813e-07
3.99879e-07
3.97926e-07
4.00252e-07
3.98241e-07
4.0072e-07
3.97068e-07
4.02307e-07
3.62417e-07
4.2547e-07
3.97405e-07
3.99178e-07
3.97472e-07
3.98516e-07
3.98535e-07
3.98481e-07
3.98471e-07
3.98739e-07
3.98509e-07
3.99026e-07
3.98301e-07
3.99719e-07
3.97683e-07
3.99377e-07
3.98133e-07
3.99589e-07
3.98603e-07
3.98928e-07
3.98409e-07
3.98948e-07
3.97987e-07
3.9949e-07
3.98483e-07
3.98912e-07
3.98864e-07
3.9867e-07
3.98889e-07
3.98575e-07
3.98605e-07
3.98864e-07
3.98342e-07
3.99314e-07
3.98157e-07
3.98984e-07
3.98322e-07
3.99266e-07
3.9866e-07
3.99062e-07
3.98466e-07
3.99515e-07
3.98341e-07
3.9895e-07
3.98489e-07
3.9965e-07
3.98155e-07
3.99624e-07
3.98309e-07
3.99354e-07
3.97796e-07
4.0081e-07
3.95539e-07
4.03217e-07
3.63386e-07
4.25124e-07
3.99389e-07
3.98408e-07
4.00029e-07
3.98648e-07
3.98505e-07
3.98547e-07
3.98506e-07
3.98539e-07
3.98899e-07
3.98458e-07
3.99462e-07
3.98193e-07
3.99968e-07
3.98543e-07
4.00562e-07
3.9865e-07
3.9876e-07
3.98595e-07
4.00682e-07
3.98176e-07
4.00324e-07
3.98203e-07
3.99967e-07
3.98393e-07
4.00202e-07
3.98177e-07
3.99538e-07
3.98882e-07
4.0035e-07
3.98197e-07
4.00041e-07
3.98504e-07
3.99307e-07
3.98689e-07
3.99589e-07
3.98357e-07
3.98936e-07
3.9873e-07
3.98759e-07
3.98396e-07
3.98959e-07
3.98444e-07
3.98841e-07
3.98143e-07
3.99092e-07
3.98416e-07
3.99307e-07
3.97919e-07
4.00202e-07
3.97249e-07
4.01109e-07
3.9531e-07
4.01709e-07
3.62356e-07
4.26798e-07
3.97239e-07
3.98538e-07
3.97833e-07
3.98542e-07
3.98424e-07
3.98488e-07
3.9851e-07
3.98854e-07
3.98385e-07
3.99536e-07
3.98003e-07
3.99571e-07
3.9859e-07
3.98831e-07
3.973e-07
4.00114e-07
3.98944e-07
3.99808e-07
3.97937e-07
3.99994e-07
3.9841e-07
3.98188e-07
3.99394e-07
3.98053e-07
3.99331e-07
3.99302e-07
3.98907e-07
3.98795e-07
3.98236e-07
3.98919e-07
3.98652e-07
3.98758e-07
3.98134e-07
3.99223e-07
3.97978e-07
3.99377e-07
3.98532e-07
3.98918e-07
3.98256e-07
3.99678e-07
3.98335e-07
3.99264e-07
3.98552e-07
3.98977e-07
3.98227e-07
3.99377e-07
3.98292e-07
3.99854e-07
3.98234e-07
3.99711e-07
3.96716e-07
4.01865e-07
3.96118e-07
4.02709e-07
3.611e-07
4.24999e-07
3.99084e-07
3.96523e-07
3.98596e-07
3.97793e-07
3.9842e-07
3.98475e-07
3.9867e-07
3.98572e-07
3.99062e-07
3.98189e-07
4.00085e-07
3.98299e-07
3.99461e-07
3.98433e-07
4.01092e-07
3.98417e-07
3.98498e-07
3.98718e-07
4.00204e-07
3.98296e-07
4.00258e-07
3.9931e-07
3.98885e-07
3.98198e-07
3.99819e-07
3.97413e-07
3.98988e-07
3.98219e-07
3.99702e-07
3.98991e-07
3.99315e-07
3.98591e-07
3.98954e-07
3.98558e-07
3.98597e-07
3.98458e-07
3.99623e-07
3.98726e-07
3.99786e-07
3.98889e-07
3.98839e-07
3.98368e-07
3.99165e-07
3.98578e-07
3.98973e-07
3.98571e-07
3.99102e-07
3.97849e-07
3.99514e-07
3.9807e-07
4.00157e-07
3.97157e-07
4.01045e-07
3.9573e-07
4.02838e-07
3.62838e-07
4.26042e-07
3.97645e-07
4.01223e-07
3.96439e-07
3.98826e-07
3.98491e-07
3.98593e-07
3.98615e-07
3.98625e-07
3.98463e-07
3.99721e-07
3.97664e-07
4.00524e-07
3.97354e-07
4.00034e-07
3.98303e-07
3.99572e-07
3.98192e-07
3.98743e-07
3.9842e-07
3.9835e-07
3.9894e-07
3.97078e-07
3.98914e-07
4.00912e-07
3.98757e-07
3.9915e-07
4.00272e-07
3.98759e-07
3.99201e-07
3.99243e-07
3.97941e-07
3.99034e-07
3.98628e-07
3.9941e-07
3.98395e-07
3.99784e-07
3.98487e-07
3.98982e-07
3.97774e-07
3.98414e-07
3.98373e-07
3.99274e-07
3.98611e-07
3.98937e-07
3.98388e-07
3.99029e-07
3.98493e-07
3.99298e-07
3.98223e-07
3.9975e-07
3.98386e-07
4.00339e-07
3.97506e-07
4.00756e-07
3.95187e-07
4.02742e-07
3.6302e-07
4.2607e-07
3.98768e-07
3.97439e-07
4.00389e-07
3.98824e-07
3.98581e-07
3.9864e-07
3.98581e-07
3.98454e-07
3.9855e-07
3.98275e-07
4.00249e-07
3.97365e-07
4.01015e-07
3.97953e-07
3.99009e-07
3.98366e-07
3.99054e-07
3.98231e-07
4.02217e-07
3.99215e-07
3.99413e-07
3.99238e-07
4.00059e-07
3.98684e-07
3.99139e-07
3.98717e-07
3.99374e-07
3.97889e-07
3.99806e-07
3.98086e-07
3.99483e-07
3.98897e-07
3.99357e-07
3.98785e-07
3.99453e-07
3.98867e-07
3.99459e-07
3.9793e-07
3.98796e-07
3.98904e-07
3.99496e-07
3.9826e-07
3.99198e-07
3.9844e-07
3.99305e-07
3.98372e-07
3.99115e-07
3.98296e-07
3.99151e-07
3.98999e-07
3.99159e-07
3.98101e-07
4.00161e-07
3.97466e-07
4.00955e-07
3.96167e-07
4.00887e-07
3.6297e-07
4.25951e-07
3.97385e-07
3.9844e-07
3.99109e-07
3.9851e-07
3.9857e-07
3.9858e-07
3.98546e-07
3.98521e-07
3.98409e-07
3.99345e-07
3.97676e-07
4.00414e-07
3.97854e-07
4.01028e-07
3.99007e-07
3.99012e-07
3.98909e-07
3.99968e-07
3.98308e-07
3.97297e-07
3.9852e-07
3.99316e-07
3.98516e-07
3.9962e-07
3.98568e-07
3.9805e-07
3.98959e-07
3.99062e-07
3.99379e-07
3.99821e-07
3.99397e-07
3.99015e-07
3.98537e-07
3.98681e-07
3.98305e-07
3.99236e-07
3.98561e-07
3.98586e-07
3.98908e-07
4.00269e-07
3.97753e-07
3.98936e-07
3.9845e-07
3.98875e-07
3.98203e-07
3.99194e-07
3.97974e-07
3.98811e-07
3.98268e-07
3.99077e-07
3.97983e-07
3.99128e-07
3.98667e-07
3.99869e-07
3.98123e-07
4.00563e-07
3.95996e-07
4.01793e-07
3.62146e-07
4.2465e-07
3.99413e-07
3.98381e-07
3.97778e-07
3.98515e-07
3.98549e-07
3.98419e-07
3.98539e-07
3.98485e-07
3.98829e-07
3.98262e-07
4.00073e-07
3.97877e-07
3.99555e-07
3.98031e-07
3.98771e-07
3.97885e-07
4.00173e-07
3.9826e-07
3.99588e-07
3.99169e-07
4.00869e-07
3.98823e-07
3.99874e-07
3.98353e-07
3.99153e-07
3.99293e-07
4.00201e-07
3.98493e-07
3.97784e-07
3.98324e-07
3.99976e-07
3.98769e-07
3.99325e-07
3.98578e-07
3.99638e-07
3.98757e-07
3.99283e-07
3.98418e-07
4.00103e-07
3.97458e-07
3.98446e-07
3.99151e-07
3.99174e-07
3.98047e-07
3.99705e-07
3.98542e-07
3.99098e-07
3.98301e-07
3.99362e-07
3.9866e-07
3.99275e-07
3.98342e-07
3.99225e-07
3.98285e-07
3.98983e-07
3.97925e-07
4.00813e-07
3.95723e-07
4.01283e-07
3.63769e-07
4.25416e-07
3.97779e-07
3.98379e-07
3.98492e-07
3.98908e-07
3.98593e-07
3.98495e-07
3.98587e-07
3.98489e-07
3.98367e-07
3.99453e-07
3.97348e-07
4.00125e-07
3.97311e-07
4.00147e-07
3.98451e-07
4.01536e-07
3.9839e-07
3.98778e-07
3.98827e-07
3.99466e-07
3.97233e-07
3.99161e-07
3.97559e-07
3.99254e-07
3.99522e-07
3.99197e-07
3.98955e-07
3.98591e-07
3.99034e-07
3.99147e-07
3.98863e-07
3.9719e-07
3.98492e-07
3.98659e-07
3.98854e-07
3.9897e-07
3.98316e-07
3.99119e-07
3.98289e-07
3.98974e-07
3.9939e-07
3.99473e-07
3.97979e-07
3.99118e-07
3.98265e-07
3.99134e-07
3.9819e-07
3.98921e-07
3.9832e-07
3.98891e-07
3.98274e-07
3.99692e-07
3.98403e-07
3.99369e-07
3.98754e-07
3.98953e-07
3.97798e-07
4.01288e-07
3.96629e-07
4.01725e-07
3.62725e-07
4.25301e-07
3.98882e-07
3.98877e-07
3.99164e-07
3.98502e-07
3.98517e-07
3.98445e-07
3.98575e-07
3.9854e-07
3.98627e-07
3.98555e-07
4.00472e-07
3.97438e-07
4.00939e-07
3.97385e-07
4.003e-07
3.98024e-07
4.00534e-07
3.97976e-07
3.99762e-07
3.98701e-07
4.00238e-07
3.99168e-07
3.99474e-07
3.99353e-07
3.99791e-07
3.98931e-07
3.99332e-07
3.99089e-07
3.99276e-07
3.98164e-07
4.00148e-07
3.99142e-07
4.00621e-07
3.98624e-07
3.99736e-07
3.98297e-07
4.00184e-07
3.98291e-07
3.99135e-07
3.98167e-07
3.99879e-07
3.97636e-07
3.98982e-07
3.98724e-07
3.99652e-07
3.9804e-07
3.99378e-07
3.98468e-07
3.99114e-07
3.98455e-07
3.98996e-07
3.98509e-07
3.99091e-07
3.97712e-07
3.99102e-07
3.98441e-07
4.00336e-07
3.97168e-07
4.0035e-07
3.96546e-07
4.01743e-07
3.63669e-07
4.25953e-07
3.97852e-07
3.98416e-07
3.97567e-07
3.98584e-07
3.98413e-07
3.98604e-07
3.98493e-07
3.98521e-07
3.9853e-07
3.99176e-07
3.97867e-07
4.00255e-07
3.97874e-07
4.00613e-07
3.99224e-07
3.99657e-07
3.98513e-07
3.99171e-07
3.99477e-07
3.99086e-07
3.98145e-07
3.98362e-07
3.99095e-07
3.98751e-07
3.98539e-07
3.98309e-07
3.98738e-07
3.98506e-07
3.98679e-07
3.9894e-07
3.99117e-07
3.983e-07
3.99073e-07
3.98237e-07
3.98801e-07
3.99237e-07
3.98754e-07
3.99073e-07
3.98543e-07
3.98929e-07
3.98923e-07
3.99044e-07
3.98789e-07
3.99174e-07
3.98373e-07
3.99167e-07
3.98143e-07
3.98831e-07
3.9838e-07
3.99075e-07
3.98322e-07
3.98822e-07
3.98435e-07
3.99591e-07
3.9816e-07
3.99619e-07
3.98371e-07
3.99223e-07
3.98087e-07
4.00792e-07
3.95971e-07
4.02324e-07
3.64007e-07
4.24153e-07
3.98637e-07
3.98013e-07
3.99159e-07
3.9855e-07
3.98599e-07
3.98268e-07
3.98524e-07
3.9858e-07
3.98659e-07
3.98632e-07
3.99607e-07
3.98282e-07
3.99864e-07
3.98494e-07
3.99054e-07
3.98223e-07
4.00448e-07
3.97803e-07
3.99761e-07
3.99491e-07
3.98904e-07
3.99454e-07
3.99387e-07
3.98185e-07
3.99884e-07
3.98352e-07
4.0003e-07
3.98822e-07
3.9983e-07
3.98751e-07
3.99366e-07
3.98732e-07
3.99758e-07
3.98463e-07
3.99604e-07
3.9855e-07
3.98831e-07
3.98701e-07
3.9803e-07
3.99003e-07
3.99388e-07
3.97993e-07
3.99087e-07
3.98168e-07
3.989e-07
3.98473e-07
3.997e-07
3.98424e-07
3.99002e-07
3.98658e-07
3.99031e-07
3.98699e-07
3.99044e-07
3.98451e-07
3.99162e-07
3.98127e-07
3.98694e-07
3.9853e-07
3.9969e-07
3.97662e-07
4.0079e-07
3.96594e-07
4.00781e-07
3.6444e-07
4.25607e-07
3.97669e-07
3.98896e-07
3.97959e-07
3.98656e-07
3.97678e-07
3.9851e-07
3.98646e-07
3.98504e-07
3.98493e-07
3.99336e-07
3.98064e-07
3.99753e-07
3.97589e-07
4.00445e-07
3.97815e-07
3.99527e-07
3.97759e-07
3.99826e-07
3.99276e-07
3.98661e-07
3.98453e-07
3.99677e-07
3.98746e-07
3.99778e-07
3.98687e-07
3.99014e-07
3.98953e-07
3.9896e-07
3.99972e-07
3.9833e-07
3.99872e-07
3.98561e-07
3.98941e-07
3.972e-07
3.98518e-07
3.98917e-07
3.99024e-07
3.99851e-07
3.99307e-07
3.98992e-07
3.98901e-07
3.98933e-07
3.9903e-07
3.98944e-07
3.98963e-07
3.99392e-07
3.98143e-07
3.99348e-07
3.97954e-07
3.98664e-07
3.98112e-07
3.98865e-07
3.98061e-07
3.98855e-07
3.98495e-07
3.99387e-07
3.98736e-07
3.99206e-07
3.98193e-07
3.99822e-07
3.97159e-07
4.00791e-07
3.96806e-07
4.0283e-07
3.6363e-07
4.24201e-07
3.98709e-07
3.97692e-07
3.98639e-07
3.97546e-07
3.99234e-07
3.98693e-07
3.98542e-07
3.98522e-07
3.9856e-07
3.98387e-07
3.99912e-07
3.97933e-07
4.00043e-07
3.97827e-07
4.00057e-07
3.97877e-07
4.0036e-07
3.98089e-07
3.97722e-07
3.98052e-07
3.99795e-07
3.98554e-07
3.99457e-07
3.98361e-07
3.98675e-07
3.99127e-07
3.99031e-07
3.98947e-07
3.99616e-07
3.98709e-07
3.99864e-07
3.98257e-07
3.99331e-07
3.98747e-07
4.00172e-07
3.98774e-07
3.98935e-07
3.98549e-07
3.98192e-07
3.98514e-07
3.99721e-07
3.98232e-07
3.99707e-07
3.98165e-07
3.99204e-07
3.97879e-07
3.99215e-07
3.98452e-07
3.99242e-07
3.98413e-07
3.99309e-07
3.9877e-07
3.99374e-07
3.98198e-07
3.99373e-07
3.98345e-07
3.99314e-07
3.9834e-07
3.99459e-07
3.97905e-07
4.00162e-07
3.98033e-07
4.00945e-07
3.9494e-07
4.02616e-07
3.63954e-07
4.24624e-07
3.97631e-07
3.98907e-07
3.9841e-07
3.99627e-07
3.98541e-07
3.98391e-07
3.98574e-07
3.9849e-07
3.98516e-07
3.99262e-07
3.97609e-07
3.99834e-07
3.97778e-07
4.00755e-07
3.9825e-07
4.00785e-07
3.99044e-07
3.99568e-07
3.99295e-07
4.01498e-07
3.98387e-07
4.00221e-07
3.98987e-07
3.99399e-07
3.99544e-07
3.99274e-07
3.99145e-07
3.99387e-07
3.98969e-07
3.98466e-07
3.98843e-07
3.98596e-07
3.98967e-07
3.98686e-07
3.99035e-07
3.98086e-07
3.99324e-07
3.98945e-07
3.99148e-07
3.9957e-07
3.99086e-07
3.97623e-07
3.98754e-07
3.98907e-07
3.98943e-07
3.99353e-07
3.9866e-07
3.9892e-07
3.98487e-07
3.99151e-07
3.98051e-07
3.98672e-07
3.98206e-07
3.99013e-07
3.98266e-07
3.98865e-07
3.98332e-07
3.99506e-07
3.9805e-07
3.99558e-07
3.98375e-07
3.99335e-07
3.97575e-07
4.01547e-07
3.95374e-07
4.0427e-07
3.63434e-07
4.2423e-07
3.98993e-07
3.97743e-07
3.98357e-07
3.98029e-07
3.98347e-07
3.98492e-07
3.98516e-07
3.98407e-07
3.9852e-07
3.98608e-07
3.99935e-07
3.98235e-07
3.99638e-07
3.98708e-07
4.00356e-07
3.98081e-07
3.99113e-07
3.98923e-07
3.99893e-07
3.98284e-07
3.99947e-07
3.98176e-07
3.98834e-07
3.98469e-07
3.9853e-07
3.98554e-07
3.99493e-07
3.98563e-07
3.991e-07
3.99189e-07
3.99712e-07
3.99432e-07
3.99363e-07
3.99479e-07
3.99476e-07
3.98627e-07
3.99321e-07
3.97729e-07
3.99252e-07
3.98407e-07
3.9882e-07
3.9861e-07
3.99887e-07
3.98684e-07
3.99476e-07
3.97969e-07
3.99018e-07
3.98391e-07
3.99149e-07
3.98417e-07
3.99294e-07
3.98682e-07
3.98982e-07
3.98531e-07
3.99029e-07
3.98217e-07
3.99389e-07
3.98385e-07
3.99742e-07
3.98473e-07
3.99826e-07
3.98104e-07
3.99884e-07
3.97272e-07
4.01292e-07
3.95161e-07
4.05166e-07
3.63981e-07
4.25519e-07
3.97879e-07
3.99558e-07
3.98443e-07
3.98437e-07
3.98534e-07
3.98572e-07
3.98592e-07
3.98427e-07
3.985e-07
3.98853e-07
3.98289e-07
3.99926e-07
3.97944e-07
3.99799e-07
3.98437e-07
3.99484e-07
3.99435e-07
3.99545e-07
3.98509e-07
3.99011e-07
3.99479e-07
3.99273e-07
3.98705e-07
3.99472e-07
4.00681e-07
4.00474e-07
3.98229e-07
3.9924e-07
3.99062e-07
3.99094e-07
3.99235e-07
3.98441e-07
3.98201e-07
3.98956e-07