/*--------------------------------*- C++ -*----------------------------------*\
| =========                 |                                                 |
| \\      /  F ield         | OpenFOAM: The Open Source CFD Toolbox           |
|  \\    /   O peration     | Version:  2206                                  |
|   \\  /    A nd           | Website:  www.openfoam.com                      |
|    \\/     M anipulation  |                                                 |
\*---------------------------------------------------------------------------*/
FoamFile
{
    version     2.0;
    format      ascii;
    arch        "LSB;label=32;scalar=64";
    class       volScalarField;
    location    "180";
    object      p;
}
// * * * * * * * * * * * * * * * * * * * * * * * * * * * * * * * * * * * * * //

dimensions      [1 -1 -2 0 0 0 0];

internalField   nonuniform List<scalar> 
93840
(
2.36793
0.564558
2.33158
1.48262
0.589745
2.12338
0.621621
1.21146
0.66895
1.86252
1.1805
0.969752
1.16397
0.752598
1.78368
0.981515
1.11193
0.964133
1.26255
0.808424
1.73151
1.10723
0.977932
1.11461
0.772935
1.21863
0.795724
1.75801
0.978015
1.10745
0.965573
1.10846
0.822094
1.20009
0.831527
1.77195
1.10541
0.976492
1.11112
0.987398
1.08221
0.86916
1.11144
0.821884
1.79054
0.98119
1.11605
0.969032
1.06698
0.986924
1.05021
0.96733
1.08271
0.823614
1.80138
1.10377
0.995724
1.11451
0.984693
1.06357
0.981536
1.02586
0.976766
1.07552
0.82178
1.81106
0.981652
1.10525
0.991897
1.07099
0.988056
1.0317
0.987738
1.03978
0.985151
1.06677
0.822275
1.8139
1.0959
0.994231
1.10458
0.992179
1.06967
0.98507
1.03607
0.962871
1.03174
0.980319
1.06609
0.82207
1.81779
0.974124
1.09391
0.992791
1.06429
1.00697
1.02471
0.984074
1.03014
0.995972
1.03965
0.990659
1.06311
0.822269
1.81971
1.10147
0.98877
1.10452
1.0009
1.06921
0.972288
1.04023
0.954671
1.0486
0.959084
1.04704
0.988261
1.06043
0.821727
1.8219
0.976483
1.10614
0.999898
1.0714
0.997235
1.03299
1.00241
1.05817
0.98869
1.01756
0.974305
1.04957
0.995446
1.05764
0.822134
1.8232
1.10744
0.999882
1.11948
0.98965
1.07106
0.977878
1.0367
0.928858
1.04057
0.973045
1.04418
0.955038
1.04575
0.987721
1.05567
0.82229
1.82498
0.987373
1.10889
1.01333
1.07532
0.993088
1.01283
0.998709
1.05
0.985564
1.0253
0.96419
1.04065
0.993915
1.04167
0.990961
1.05459
0.823232
1.82603
1.09166
1.00686
1.09618
0.99424
1.06936
1.00502
1.03219
0.949945
1.04185
0.980502
1.04149
0.962306
1.05018
0.977935
1.0394
0.986891
1.05433
0.823571
1.82756
0.981622
1.08331
1.00675
1.06782
1.0122
1.02005
0.983644
1.04621
0.987744
1.04289
0.968364
1.03966
0.990988
1.03905
0.992853
1.02528
0.990986
1.054
0.825135
1.82824
1.09003
0.991571
1.09872
1.01578
1.06293
0.98497
1.03491
0.963324
1.07725
0.986195
1.0276
0.975863
1.05477
0.977674
1.00801
0.99144
1.02702
0.987834
1.05459
0.825518
1.8291
0.976469
1.09898
1.005
1.07119
1.01546
1.03548
0.987474
1.0561
0.957349
1.0494
0.977928
1.04714
0.977412
1.03194
0.994809
1.03951
0.984536
1.02291
0.99287
1.05455
0.82723
1.82963
1.09944
0.997399
1.11132
1.02931
1.06597
0.987122
1.02856
0.938509
1.05368
0.993447
1.0577
0.967956
1.03573
0.988273
1.0277
0.98681
1.03171
0.971733
1.03421
0.989213
1.05509
0.828159
1.83042
0.983837
1.10143
1.03787
1.08037
0.985731
1.02943
0.980981
1.07675
0.970143
1.03915
0.961976
1.04517
0.981513
1.04899
0.98994
1.03442
0.97546
1.03996
0.984041
1.02684
0.991948
1.05489
0.829866
1.83082
1.10217
0.999449
1.09829
0.997399
1.06803
1.01044
1.04363
0.93632
1.04944
0.981625
1.0418
0.966147
1.04961
0.981456
1.0349
0.970876
1.0441
0.970562
1.03621
0.981283
1.03242
0.989488
1.05532
0.83093
1.83176
0.994062
1.09637
1.02329
1.08639
0.998217
1.02243
0.966781
1.06415
0.99681
1.07116
0.994551
1.05277
0.973205
1.04605
0.981734
1.05463
0.9854
1.04245
0.966964
1.03242
0.993285
1.02246
0.990786
1.05542
0.832987
1.83211
1.08987
0.993069
1.09177
0.995719
1.06066
1.01247
1.05632
0.961563
1.05143
0.973768
1.03726
0.978944
1.05469
0.985677
1.05255
0.987964
1.03315
0.984909
1.04423
0.97754
1.02993
0.992724
1.0163
0.985644
1.0561
0.83453
1.83256
0.992867
1.10492
1.00127
1.0863
1.01273
1.02361
0.963413
1.04537
1.00097
1.04382
0.99618
1.05235
0.983984
1.05168
0.988726
1.04369
0.986769
1.04082
0.98084
1.03693
0.988195
1.02651
0.999241
1.02469
0.987587
1.05669
0.837325
1.83273
1.0842
0.996033
1.106
1.01213
1.05042
1.00846
1.06297
0.975291
1.04281
0.972127
1.0428
0.978035
1.03846
0.976029
1.0499
0.992038
1.04377
0.995014
1.02832
0.983779
1.0453
0.997593
1.01551
0.993552
1.0167
0.984398
1.05807
0.839348
1.83312
0.981521
1.09591
1.00507
1.08194
1.02247
1.03589
0.96896
1.02346
0.989001
1.03687
0.995249
1.04147
0.991837
1.04897
0.988008
1.04747
0.994091
1.03625
0.98386
1.03784
0.990422
1.03228
0.996214
1.02057
0.991931
1.02308
0.985945
1.05942
0.842314
1.83296
1.09952
0.992358
1.11175
1.01736
1.05301
1.00414
1.06281
0.975739
1.04895
0.98342
1.04377
0.979429
1.03751
0.984293
1.02986
0.97258
1.0466
0.994582
1.03497
0.987621
1.03263
0.988136
1.03346
1.00225
1.01889
0.991012
1.01649
0.986061
1.06082
0.84384
1.83267
0.985124
1.10339
1.00152
1.07972
1.02393
1.04144
0.968708
1.01517
0.979706
1.02901
0.997679
1.03049
0.979024
1.04831
0.991797
1.04176
0.986327
1.03911
0.98969
1.0318
0.985203
1.04036
1.00026
1.03258
0.990004
1.0204
0.986477
1.0267
0.987271
1.06202
0.847436
1.83192
1.09601
0.994532
1.12147
1.01683
1.05997
1.00219
1.05931
0.978243
1.05825
0.986734
1.0479
0.975155
1.03378
0.953912
1.03824
0.974737
1.03847
0.989111
1.04372
0.993756
1.03454
0.983167
1.03305
0.984722
1.03095
0.996545
1.02996
0.986512
1.0279
0.985542
1.06305
0.848957
1.83124
0.978845
1.10433
1.02243
1.08201
1.02133
1.04319
0.965416
1.02767
0.970065
1.03838
0.980495
1.03381
0.98421
1.05027
0.99908
1.04686
0.980348
1.03193
0.983979
1.04191
0.984158
1.03457
0.979924
1.03297
0.993274
1.03185
0.989517
1.03711
0.987814
1.02974
0.987319
1.06388
0.853037
1.83059
1.10259
0.995104
1.11611
1.0021
1.05687
1.00032
1.06345
0.963711
1.06184
0.996641
1.05707
0.996572
1.04241
0.957989
1.04248
0.991832
1.04506
0.987328
1.03522
0.978529
1.03709
0.986036
1.03451
0.980654
1.03162
0.982566
1.03127
0.989228
1.03835
0.983259
1.03329
0.983971
1.06804
0.834828
1.82977
0.987754
1.10793
1.02526
1.08174
1.03083
1.05142
0.967663
1.03907
0.985592
1.04595
0.97454
1.04282
0.994736
1.0413
1.00572
1.03438
0.984402
1.04561
0.977258
1.04969
0.988728
1.03894
0.982745
1.03836
0.980521
1.04121
0.989097
1.03385
0.985347
1.03786
0.983989
1.03582
0.987132
1.09009
0.838463
1.82846
1.10196
1.0038
1.10865
1.01613
1.06181
0.991989
1.06621
0.96528
1.05442
0.994864
1.05769
1.00367
1.04995
0.988965
1.05083
0.994225
1.04157
0.987028
1.05246
0.977438
1.03812
0.981203
1.0369
0.978331
1.0387
0.977384
1.04492
0.979816
1.03118
0.9844
1.03959
0.96998
1.04593
0.973685
1.08642
0.844421
1.82701
0.989807
1.10421
1.02589
1.08897
1.03386
1.05563
0.964462
1.04546
1.00349
1.05007
0.978587
1.05571
0.977856
1.04081
0.992824
1.03413
0.992931
1.04368
0.982531
1.05057
0.984095
1.04084
0.982316
1.0425
0.978701
1.04451
0.983183
1.04659
0.989518
1.03591
0.984654
1.04487
0.978722
1.04872
0.980873
1.08254
0.847224
1.82575
1.10349
1.00464
1.09439
1.02612
1.06687
0.980037
1.0745
0.976014
1.04159
0.990201
1.04952
1.00295
1.05756
1.00547
1.05642
0.996485
1.03332
0.978109
1.0454
0.982153
1.04908
0.984649
1.04007
0.975313
1.03694
0.978075
1.04378
0.980075
1.04728
0.980805
1.03653
0.981649
1.04962
0.966669
1.05663
0.982161
1.08056
0.852476
1.82468
1.00551
1.1057
1.01079
1.08671
1.03992
1.05702
0.97014
1.03978
1.00473
1.04693
1.01086
1.05137
0.989194
1.05332
0.97066
1.03448
0.998965
1.0471
0.99682
1.04387
0.985881
1.04674
0.980632
1.0456
0.985942
1.04938
0.983616
1.04728
0.976992
1.03843
0.981877
1.04045
0.982693
1.05306
0.982153
1.05633
0.988552
1.08287
0.83429
1.82334
1.08937
1.00001
1.1082
1.03993
1.07472
0.970121
1.0772
0.99577
1.0405
0.987566
1.04243
0.976426
1.0434
1.0026
1.05966
1.00521
1.04095
0.98331
1.04431
0.998431
1.04752
0.982927
1.04733
0.979087
1.047
0.97922
1.0378
0.982866
1.0451
0.983262
1.04965
0.978199
1.04206
0.979608
1.05436
0.970166
1.06197
0.97855
1.09999
0.840058
1.82178
0.997894
1.10941
1.0034
1.07752
1.02345
1.05594
0.978507
1.03712
1.00334
1.04057
0.998768
1.05041
1.0029
1.04869
0.983826
1.0537
0.983675
1.03417
0.996619
1.03925
0.999688
1.04458
0.981713
1.05018
0.98384
1.05385
0.988247
1.05168
0.985434
1.04958
0.971458
1.04238
0.981201
1.04436
0.97864
1.05828
0.980406
1.06123
0.97626
1.09572
0.844821
1.82011
1.08956
1.011
1.11566
1.034
1.08313
0.97498
1.07392
1.00755
1.03781
0.983307
1.05332
0.991825
1.05191
0.991124
1.04236
0.991305
1.04537
0.995632
1.05127
0.99311
1.04249
0.988425
1.05442
0.97314
1.05391
0.981071
1.05022
0.989674
1.03416
0.984327
1.04676
0.980272
1.04997
0.981944
1.04284
0.975132
1.05607
0.975908
1.06483
0.977406
1.09165
0.850196
1.81831
1.00532
1.0987
1.00798
1.06641
1.02357
1.05264
0.986696
1.04405
0.996871
1.04542
1.00184
1.05102
1.00065
1.05416
1.00147
1.05299
0.993155
1.05339
0.980294
1.0399
0.989637
1.04256
0.998606
1.05519
0.985248
1.05418
0.98382
1.05682
0.992017
1.05141
0.985995
1.05125
0.975278
1.04547
0.980183
1.04552
0.978675
1.05912
0.980637
1.06199
0.984358
1.08699
0.853571
1.81681
1.07891
1.01221
1.11554
1.01345
1.08824
0.9606
1.06472
1.01903
1.03705
0.991728
1.05031
1.00766
1.05381
1.00056
1.05323
0.994194
1.04555
0.990378
1.05074
0.995479
1.05696
0.987857
1.05205
0.981176
1.06402
0.985769
1.05379
0.983748
1.0515
0.99482
1.0329
0.984458
1.04816
0.97962
1.05055
0.979573
1.04437
0.976335
1.05882
0.975548
1.06493
0.986825
1.08384
0.858289
1.81562
0.994158
1.09141
1.02956
1.06838
1.01916
1.05589
1.00182
1.04998
0.997532
1.04168
1.01396
1.04442
1.00492
1.04857
1.00729
1.05266
0.995696
1.05331
0.98568
1.0522
0.988828
1.04324
0.991928
1.05465
0.998283
1.05984
1.0026
1.05382
0.990664
1.05185
1.00012
1.05011
0.986131
1.05104
0.976771
1.05158
0.976887
1.04857
0.971533
1.06254
0.982511
1.06483
0.985557
1.08607
0.842953
1.8138
1.09265
1.01524
1.10717
0.994761
1.0891
0.961589
1.05741
1.02386
1.03444
1.00989
1.03311
1.00413
1.05191
1.00024
1.04896
1.00313
1.05057
0.99235
1.04887
0.991912
1.04842
0.996021
1.06005
0.990087
1.05773
0.983843
1.05349
0.999595
1.05458
0.996408
1.04637
0.99565
1.03532
0.988015
1.04789
0.982369
1.05105
0.980418
1.04469
0.976497
1.06271
0.977183
1.06991
0.990701
1.10123
0.84705
1.81183
0.99719
1.08382
1.03594
1.0786
1.03314
1.06307
1.01053
1.04832
1.00465
1.04082
1.02209
1.03416
1.0164
1.04727
1.014
1.04583
1.00919
1.05396
0.989091
1.05439
0.989635
1.04736
0.989911
1.04379
0.999494
1.06116
1.01116
1.04987
0.993697
1.05588
0.998808
1.04872
0.997346
1.04438
0.99091
1.04998
0.982793
1.05434
0.973479
1.04646
0.966384
1.06566
0.980093
1.06584
0.979057
1.09687
0.852638
1.80972
1.09815
1.00567
1.09331
1.00249
1.08253
0.958684
1.04887
1.02491
1.03743
1.02196
1.02436
1.00729
1.03673
0.997386
1.04619
1.00859
1.04157
1.00652
1.05002
0.995861
1.05
1.00293
1.04899
0.997247
1.06358
0.993792
1.05557
0.987878
1.05338
0.998251
1.05413
0.998831
1.04474
0.993215
1.04089
0.996458
1.04898
0.985428
1.0528
0.989947
1.04566
0.977843
1.06406
0.97544
1.07351
0.983892
1.09193
0.855151
1.80796
1.0216
1.0899
1.02641
1.08146
1.03534
1.06507
1.01557
1.0489
1.00626
1.03422
1.02149
1.03723
1.01674
1.03492
1.01743
1.0421
1.02518
1.03921
1.00456
1.04974
0.993255
1.05686
1.00147
1.04869
0.989641
1.04838
1.00972
1.06206
0.999509
1.04769
0.999403
1.05763
1.00151
1.04694
0.996699
1.04662
0.996089
1.04971
0.980096
1.05745
0.982875
1.04757
0.969138
1.06963
0.974008
1.06594
0.986253
1.08846
0.860108
1.80586
1.08693
0.987103
1.09134
1.03223
1.07879
0.970618
1.0473
1.01826
1.04242
1.02091
1.03047
1.01575
1.02677
1.00624
1.03574
1.00649
1.03872
1.01467
1.03532
1.00333
1.04668
1.00315
1.04817
1.00447
1.0485
0.99979
1.06379
0.992315
1.0549
1.0014
1.05467
1.0059
1.04994
0.997083
1.04668
0.990175
1.04847
0.998475
1.04794
0.987001
1.04773
0.983254
1.04816
0.971156
1.07292
0.969347
1.06921
0.991442
1.09029
0.844996
1.80428
1.02927
1.1145
1.02024
1.07526
1.02905
1.06162
1.01043
1.04732
1.00856
1.03158
1.01194
1.03226
1.01003
1.03823
1.01787
1.03528
1.02401
1.03382
1.01799
1.04015
1.01516
1.04237
0.991966
1.05394
1.00037
1.04845
0.997012
1.04894
1.00736
1.05375
0.999009
1.04756
1.00369
1.05442
1.00022
1.05028
0.99649
1.05219
0.995641
1.04969
0.98897
1.0547
0.982152
1.05283
0.970351
1.07483
0.978752
1.06414
0.990561
1.10359
0.850332
1.80239
1.0797
1.0184
1.09712
1.04794
1.07745
0.989139
1.04701
1.01473
1.04808
1.02372
1.03469
1.01471
1.03775
1.00726
1.0328
1.01153
1.03916
1.01363
1.03033
1.01516
1.04069
1.01059
1.04267
1.00513
1.04579
1.00503
1.04729
0.999459
1.06195
1.00818
1.05522
1.00478
1.05509
1.00868
1.05173
0.998975
1.04998
0.992394
1.05311
0.997774
1.04837
0.989776
1.05086
0.97815
1.05193
0.971802
1.07461
0.975371
1.06847
0.985378
1.0998
0.854215
1.8007
1.03818
1.10163
1.01006
1.07108
1.02407
1.0624
1.00376
1.04581
1.01731
1.03067
1.01115
1.0302
1.01578
1.04192
1.0085
1.03852
1.01684
1.03312
1.01899
1.03379
1.0154
1.03793
1.01508
1.0413
1.00029
1.05228
0.999479
1.04683
1.00154
1.04901
1.00961
1.05499
1.0104
1.04538
1.00731
1.05391
1.00288
1.0517
0.998715
1.05793
0.995462
1.05247
0.990503
1.05258
0.981805
1.0577
0.975524
1.07349
0.984072
1.06615
0.985982
1.09617
0.858994
1.79875
1.06299
1.02733
1.11368
1.04562
1.07915
1.00758
1.04168
1.01823
1.04671
1.03229
1.0442
1.01862
1.03856
1.00933
1.04019
1.00464
1.03448
1.00764
1.0318
1.01635
1.03269
1.01337
1.0345
1.01047
1.03934
1.01308
1.04539
1.00684
1.0485
1.00322
1.06141
1.00176
1.05406
1.00994
1.05355
1.00923
1.05384
1.00484
1.05207
0.995969
1.0542
0.996479
1.04933
0.992039
1.05303
0.981556
1.0604
0.979384
1.07194
0.984567
1.07001
0.991664
1.09243
0.861938
1.79695
1.05257
1.10188
1.02106
1.07051
1.02259
1.06395
0.997703
1.04815
1.02835
1.03249
1.00824
1.02883
1.01074
1.03405
1.00805
1.0441
1.0009
1.04161
1.02187
1.03123
1.01733
1.0339
1.01689
1.03666
1.01441
1.03829
1.01178
1.04652
1.00169
1.0484
1.00739
1.05065
1.01599
1.05267
1.01044
1.05009
1.01063
1.0541
1.00777
1.05448
0.999521
1.06106
0.992843
1.05258
0.986882
1.05231
0.982332
1.06079
0.988808
1.06865
0.987095
1.06794
0.992236
1.0887
0.866522
1.79476
1.04225
1.03042
1.11862
1.03935
1.07967
1.01486
1.0359
1.02352
1.04064
1.03722
1.04243
1.02066
1.03516
1.01199
1.03868
1.00397
1.04221
1.01088
1.03471
1.00606
1.03137
1.00941
1.03291
1.01289
1.03763
1.01292
1.03479
1.00767
1.04533
1.00866
1.05048
1.00757
1.05037
1.01715
1.05405
1.00693
1.05273
1.01461
1.05393
1.00804
1.05245
0.994838
1.05301
0.993775
1.05084
0.992376
1.05201
0.984427
1.06048
0.995819
1.06775
0.994186
1.06952
0.994532
1.08517
0.868719
1.79295
1.03843
1.09336
1.03138
1.07532
1.02089
1.0643
1.00139
1.05315
1.03265
1.0424
1.01089
1.03371
1.02008
1.02877
1.0139
1.03649
1.00585
1.03974
1.01117
1.03642
1.01142
1.038
1.01742
1.03435
1.01008
1.03918
1.01643
1.03919
1.01541
1.04505
1.00427
1.0504
1.01114
1.04884
1.02059
1.05314
1.01318
1.05103
1.01701
1.0517
1.00907
1.05609
1.0018
1.06178
0.990437
1.05614
0.993671
1.05135
0.986417
1.06063
0.996738
1.06703
0.996891
1.06678
0.998844
1.08296
0.872962
1.79117
1.0573
1.02308
1.11998
1.04348
1.08229
1.00952
1.03087
1.02265
1.03546
1.0371
1.03488
1.03026
1.0365
1.01993
1.03503
1.01195
1.03636
1.00963
1.03828
1.01667
1.03731
1.00729
1.04139
1.01104
1.03444
1.00991
1.03873
1.00958
1.03265
1.01696
1.0423
1.00934
1.05034
1.01654
1.05264
1.01616
1.05288
1.01137
1.05138
1.02184
1.05207
1.00831
1.04871
0.99245
1.05402
0.990615
1.05772
0.9959
1.05147
0.99273
1.0592
1.00014
1.06453
0.996934
1.06649
0.998415
1.08449
0.860773
1.7893
1.02802
1.09409
1.04496
1.07366
1.0267
1.06349
1.01066
1.0552
1.03605
1.05348
1.01923
1.03449
1.02529
1.03136
1.01988
1.03003
1.01819
1.03373
1.01562
1.03659
1.01083
1.03889
1.01031
1.03631
1.01278
1.03467
1.00982
1.04069
1.01815
1.03645
1.01596
1.04424
1.00644
1.05046
1.00754
1.04969
1.01971
1.05179
1.01715
1.04916
1.02222
1.05024
1.00897
1.054
0.998021
1.06443
0.988943
1.06196
0.997105
1.05156
0.995812
1.06149
1.00542
1.06346
1.00737
1.06246
1.00354
1.0966
0.864576
1.78729
1.06688
1.01847
1.11609
1.04926
1.08285
0.996011
1.02998
1.01614
1.02775
1.03497
1.02708
1.04571
1.03142
1.02937
1.03051
1.01993
1.03268
1.01603
1.02983
1.01714
1.0371
1.0162
1.03978
1.00768
1.0389
1.00532
1.03566
1.00603
1.03891
1.00958
1.03558
1.01565
1.04102
1.01357
1.04877
1.0181
1.05257
1.01568
1.05068
1.01617
1.0483
1.02286
1.04746
1.00544
1.05255
0.989456
1.05777
0.991554
1.06154
0.995577
1.05469
0.995876
1.0637
1.00683
1.06194
1.0058
1.06062
0.996265
1.09337
0.868268
1.78516
1.04078
1.09311
1.05291
1.07544
1.02935
1.06615
1.02014
1.05307
1.03851
1.05919
1.03022
1.04089
1.02582
1.0238
1.02483
1.02741
1.02814
1.02676
1.02424
1.0268
1.01972
1.03761
1.01523
1.0382
1.01312
1.03743
1.01101
1.03791
1.00976
1.03729
1.01586
1.03925
1.02088
1.04358
1.01074
1.0492
1.01235
1.04902
1.01887
1.04903
1.02631
1.04663
1.02308
1.0483
1.00409
1.05558
0.994482
1.069
0.993697
1.05989
0.995809
1.0543
0.997708
1.06525
1.01071
1.05938
1.01212
1.0591
1.00208
1.08947
0.871141
1.78317
1.06286
1.01646
1.1151
1.04765
1.08094
0.991487
1.03627
1.01137
1.02582
1.03068
1.02243
1.04563
1.02819
1.03662
1.03192
1.02497
1.02728
1.02179
1.02776
1.02068
1.03307
1.02134
1.03577
1.02082
1.03779
1.00631
1.03846
1.00678
1.03667
1.01051
1.04017
1.01049
1.03339
1.01703
1.04128
1.01436
1.04637
1.02276
1.05058
1.01857
1.04792
1.02027
1.0453
1.02337
1.04775
1.00249
1.05504
0.98869
1.06128
0.995679
1.06117
0.999193
1.05859
0.998579
1.06535
1.01331
1.05823
1.01009
1.0568
0.998399
1.087
0.874568
1.7809
1.03691
1.09579
1.05986
1.0713
1.03355
1.0682
1.02387
1.04822
1.03907
1.06051
1.04105
1.05186
1.03158
1.03468
1.03082
1.02746
1.0263
1.02214
1.02743
1.02356
1.0265
1.03036
1.02275
1.03518
1.01817
1.03574
1.01604
1.03498
1.01462
1.03829
1.01287
1.03926
1.01654
1.03691
1.01764
1.0418
1.01429
1.04691
1.01652
1.04805
1.02479
1.04621
1.03035
1.0439
1.0216
1.0481
1.00157
1.06052
0.996354
1.07184
0.998808
1.05966
0.996435
1.05875
1.00049
1.06511
1.01603
1.05665
1.01508
1.05465
1.00849
1.08849
0.86363
1.77897
1.06731
1.02192
1.10989
1.04112
1.06168
0.995168
1.04558
1.00934
1.02787
1.03257
1.02453
1.04756
1.01685
1.04219
1.03249
1.03589
1.03138
1.02392
1.02413
1.02451
1.0289
1.02196
1.02942
1.02175
1.03477
1.01989
1.03599
1.0121
1.03809
1.01291
1.03521
1.01447
1.03978
1.01715
1.03317
1.01729
1.03881
1.01957
1.04375
1.02394
1.04904
1.02212
1.04355
1.02496
1.04074
1.0202
1.0481
0.999306
1.06101
0.991247
1.06406
0.999676
1.05925
0.999836
1.06483
1.00095
1.06254
1.02137
1.054
1.01247
1.05187
1.00175
1.09845
0.866798
1.77708
1.0408
1.08967
1.05963
1.08008
1.0407
1.07057
1.02388
1.04207
1.0379
1.05972
1.04439
1.05207
1.04639
1.05591
1.03579
1.03796
1.03258
1.02912
1.02413
1.02165
1.03052
1.02013
1.02641
1.02528
1.02817
1.03501
1.01919
1.03568
1.02261
1.03416
1.02198
1.03825
1.01354
1.03792
1.02213
1.03558
1.01988
1.03892
1.01931
1.04383
1.01908
1.04613
1.02859
1.04168
1.03054
1.04164
1.01878
1.04845
0.999333
1.06594
0.998617
1.0712
1.0006
1.05982
1.00371
1.06137
1.01122
1.06193
1.0206
1.05003
1.02365
1.04829
1.00031
1.09538
0.871904
1.77509
1.06489
1.02515
1.10417
1.0396
1.06852
1.00215
1.0529
1.01209
1.03076
1.03661
1.02667
1.04793
1.03194
1.03606
1.02823
1.03562
1.02967
1.031
1.02575
1.02567
1.0195
1.02412
1.02561
1.02208
1.029
1.02247
1.03396
1.02087
1.03451
1.01497
1.03516
1.01639
1.03441
1.01821
1.03769
1.02239
1.03233
1.01673
1.03691
1.02223
1.04305
1.02217
1.04678
1.02473
1.04003
1.02566
1.04185
1.01882
1.04721
0.998903
1.06531
0.999097
1.06418
1.00483
1.06101
1.00091
1.06136
1.01517
1.06004
1.02762
1.04759
1.01405
1.04612
0.999161
1.09225
0.874665
1.77317
1.04593
1.08929
1.05916
1.08146
1.01835
1.0737
1.02428
1.03677
1.03646
1.06003
1.04799
1.05558
1.04604
1.0409
1.04076
1.04692
1.03552
1.03166
1.03033
1.03061
1.02867
1.0232
1.03086
1.02052
1.0277
1.02745
1.02836
1.03389
1.02459
1.03354
1.02779
1.03365
1.02598
1.03485
1.01741
1.03659
1.02487
1.03303
1.02222
1.03565
1.02161
1.04143
1.02138
1.04411
1.02717
1.03792
1.03172
1.04098
1.01743
1.04894
1.00007
1.06779
1.00543
1.07117
1.00389
1.05857
1.00783
1.06177
1.01878
1.05658
1.02572
1.04467
1.01853
1.04659
1.00051
1.08895
0.879533
1.77097
1.06799
1.02223
1.09377
1.04446
1.07651
1.01446
1.05614
1.01482
1.03395
1.04267
1.02611
1.05101
1.02951
1.04905
1.03319
1.03799
1.02912
1.03774
1.02956
1.03087
1.02373
1.02818
1.02821
1.02522
1.02118
1.02103
1.02594
1.02429
1.03208
1.02394
1.03196
1.01617
1.03287
1.01916
1.03309
1.02065
1.0353
1.02374
1.03136
1.01997
1.0334
1.02398
1.04177
1.02232
1.04339
1.02827
1.03596
1.02451
1.03882
1.01634
1.04708
1.00247
1.06703
1.00697
1.06484
1.01319
1.06032
1.01024
1.06305
1.02262
1.05379
1.02965
1.04171
1.01549
1.04944
1.00157
1.08531
0.881486
1.7688
1.04413
1.08419
1.05692
1.07564
1.00923
1.07662
1.02688
1.03292
1.03615
1.05847
1.05315
1.05767
1.04711
1.05034
1.04427
1.04807
1.04344
1.03652
1.03858
1.03684
1.03402
1.03085
1.03077
1.0249
1.02951
1.01673
1.02692
1.02402
1.02885
1.03171
1.02429
1.03166
1.02703
1.03167
1.02776
1.03305
1.02151
1.03446
1.02496
1.03094
1.02187
1.03438
1.02044
1.03939
1.02195
1.04173
1.02867
1.03397
1.03032
1.03894
1.01531
1.05071
1.0048
1.06879
1.00371
1.0634
1.01381
1.05773
1.00857
1.06193
1.02404
1.05131
1.02814
1.03961
1.01471
1.05417
0.996654
1.08329
0.885897
1.76666
1.07191
1.02683
1.08679
1.04905
1.07976
1.02488
1.05442
1.01523
1.03566
1.04843
1.02733
1.04884
1.02909
1.05099
1.03238
1.0499
1.03458
1.04487
1.03049
1.04153
1.02979
1.03354
1.02263
1.02999
1.02784
1.02566
1.02724
1.02153
1.02624
1.0272
1.0307
1.02452
1.03082
1.0197
1.03095
1.02066
1.03126
1.0252
1.03281
1.02423
1.02921
1.02129
1.03028
1.02432
1.03956
1.02523
1.03977
1.03083
1.0326
1.02392
1.03752
1.01411
1.05018
1.00741
1.06755
1.01252
1.06337
1.01309
1.05902
1.01244
1.0607
1.02414
1.04844
1.027
1.0395
1.01213
1.06078
1.0016
1.08451
0.875394
1.76485
1.04134
1.0847
1.0621
1.07051
1.00997
1.08293
1.02891
1.03236
1.03821
1.05961
1.05225
1.06207
1.0541
1.05578
1.0506
1.05071
1.04767
1.04723
1.04598
1.04432
1.03866
1.03457
1.03275
1.02939
1.03204
1.02338
1.02886
1.02267
1.02553
1.02531
1.02989
1.0298
1.02347
1.03338
1.02632
1.02878
1.0267
1.03322
1.0227
1.03128
1.02266
1.03075
1.02032
1.03372
1.02202
1.0376
1.02597
1.03768
1.02939
1.03079
1.02823
1.03843
1.01242
1.05337
1.00749
1.06655
1.01356
1.06457
1.01646
1.05982
1.0148
1.05909
1.0294
1.04598
1.02566
1.04319
1.00984
1.06005
1.00007
1.09476
0.878649
1.76252
1.0717
1.02694
1.0787
1.04811
1.08244
1.03363
1.05036
1.01526
1.03444
1.05144
1.02982
1.05027
1.03066
1.0528
1.03935
1.0494
1.03567
1.0472
1.03551
1.04573
1.03593
1.04039
1.03318
1.03375
1.02452
1.02955
1.02749
1.02527
1.02873
1.02348
1.02742
1.02772
1.02868
1.02606
1.03048
1.02207
1.02675
1.02119
1.02966
1.02538
1.03203
1.02153
1.03255
1.01968
1.03015
1.02529
1.03743
1.027
1.0358
1.02991
1.0294
1.02437
1.03718
1.01376
1.05324
1.01078
1.06542
1.01271
1.06306
1.01227
1.05947
1.01648
1.05602
1.02677
1.04411
1.02415
1.04564
1.00797
1.05773
0.997086
1.09179
0.88283
1.7601
1.03903
1.08419
1.06258
1.06519
1.01506
1.08829
1.03006
1.03505
1.04086
1.06021
1.05362
1.06141
1.05916
1.06
1.05393
1.05074
1.05393
1.04646
1.05068
1.04504
1.04455
1.03919
1.03689
1.03409
1.03263
1.03313
1.03099
1.02928
1.02944
1.0268
1.02568
1.02711
1.03032
1.02717
1.02406
1.03231
1.02553
1.02852
1.02237
1.03147
1.02358
1.02963
1.02004
1.0343
1.01883
1.03347
1.02459
1.03511
1.02556
1.03427
1.02688
1.02774
1.02604
1.0378
1.01273
1.05433
1.01212
1.06472
1.01386
1.063
1.0144
1.05987
1.01998
1.05343
1.02978
1.043
1.02227
1.04463
1.00823
1.05735
0.996371
1.08815
0.885877
1.75783
1.06897
1.02557
1.0642
1.04163
1.0788
1.03656
1.04539
1.01699
1.03179
1.05368
1.02946
1.05223
1.03621
1.04942
1.03742
1.05526
1.03837
1.04918
1.03814
1.04702
1.03557
1.04524
1.03315
1.0385
1.03253
1.03565
1.02305
1.02816
1.03262
1.02646
1.0304
1.02427
1.02706
1.02577
1.02767
1.02427
1.03243
1.0247
1.02895
1.02078
1.02995
1.02383
1.03223
1.01788
1.03398
1.01794
1.02966
1.02557
1.0349
1.02681
1.03302
1.02903
1.02639
1.02274
1.03783
1.0129
1.05528
1.01351
1.06242
1.01511
1.0607
1.01233
1.05768
1.024
1.05152
1.0262
1.04176
1.02414
1.04222
1.0067
1.05808
0.995812
1.08548
0.889646
1.7554
1.04078
1.08369
1.05012
1.06537
1.03051
1.09199
1.0316
1.03958
1.04228
1.05966
1.05494
1.06171
1.06114
1.06168
1.06002
1.05536
1.053
1.04625
1.05418
1.0441
1.04927
1.0419
1.04642
1.04292
1.03837
1.03443
1.03176
1.034
1.03429
1.02684
1.03112
1.02933
1.02821
1.02874
1.03093
1.02734
1.02257
1.0298
1.02348
1.02834
1.02215
1.03098
1.02575
1.03007
1.01595
1.03499
1.01769
1.03208
1.02536
1.03397
1.02588
1.03176
1.02497
1.02508
1.02237
1.03843
1.01209
1.05634
1.01497
1.06212
1.01813
1.06123
1.01271
1.05716
1.02532
1.04883
1.03232
1.03886
1.02403
1.0409
1.00402
1.06371
0.994498
1.08662
0.880201
1.75321
1.06537
1.03433
1.08425
1.03634
1.07571
1.03668
1.04132
1.01777
1.02898
1.05622
1.03062
1.05352
1.04518
1.04185
1.03903
1.05154
1.04137
1.05518
1.04291
1.0511
1.04278
1.04574
1.03537
1.04547
1.03635
1.04081
1.03229
1.03736
1.02563
1.02944
1.03153
1.02634
1.0312
1.0257
1.02685
1.02381
1.02847
1.0242
1.03148
1.02295
1.03255
1.01951
1.03074
1.02288
1.03239
1.01484
1.03461
1.0167
1.02968
1.02539
1.03319
1.02589
1.03053
1.0255
1.02377
1.02083
1.03847
1.01163
1.05559
1.01727
1.05929
1.02322
1.05855
1.01349
1.05552
1.02932
1.0458
1.03158
1.03556
1.02383
1.04051
1.00072
1.06625
0.995141
1.09644
0.883842
1.75072
1.04429
1.08244
1.04617
1.07018
1.03972
1.09189
1.03481
1.04426
1.04286
1.06003
1.05647
1.06406
1.05707
1.05162
1.05944
1.053
1.05936
1.05202
1.05306
1.04985
1.0516
1.04291
1.04969
1.0414
1.0447
1.03928
1.03782
1.03313
1.0327
1.03407
1.03661
1.02992
1.03349
1.02917
1.03092
1.02851
1.02847
1.02728
1.02347
1.02997
1.02349
1.02981
1.02131
1.03067
1.02632
1.03135
1.01448
1.03446
1.01761
1.03159
1.02353
1.03173
1.02563
1.02921
1.02443
1.02285
1.01913
1.04055
1.01242
1.05631
1.02103
1.05908
1.02695
1.05842
1.01673
1.05416
1.03164
1.04311
1.03334
1.03235
1.02227
1.04026
0.997887
1.07325
0.989863
1.09368
0.887389
1.74863
1.06229
1.04174
1.08233
1.02937
1.07593
1.03251
1.03913
1.02271
1.02669
1.05765
1.03517
1.05338
1.03836
1.05668
1.04657
1.04694
1.04326
1.05062
1.04224
1.05121
1.04453
1.04965
1.04151
1.04798
1.03641
1.04409
1.03733
1.04022
1.03152
1.03786
1.02693
1.03178
1.03312
1.02739
1.02963
1.02717
1.02753
1.02402
1.02836
1.02485
1.02982
1.02475
1.03194
1.0197
1.03093
1.02102
1.03275
1.01506
1.03304
1.01539
1.03072
1.02322
1.03281
1.02618
1.02838
1.0231
1.02245
1.01726
1.04363
1.01283
1.05361
1.02421
1.05754
1.02601
1.0566
1.02097
1.0519
1.0334
1.04046
1.02905
1.02988
1.02038
1.04519
0.994869
1.07544
0.99551
1.09108
0.891341
1.74593
1.04425
1.07519
1.06142
1.08074
1.04937
1.08234
1.03794
1.04684
1.04342
1.06001
1.05411
1.06337
1.05676
1.05746
1.06253
1.05389
1.06004
1.0485
1.05243
1.0484
1.05276
1.04778
1.05086
1.04222
1.04992
1.04258
1.04299
1.04024
1.03839
1.03267
1.0351
1.03461
1.03643
1.02873
1.03222
1.02808
1.03291
1.02936
1.02762
1.02846
1.02276
1.02879
1.02242
1.02912
1.02303
1.03037
1.02664
1.0309
1.01612
1.03405
1.01818
1.03342
1.02227
1.03131
1.02297
1.02716
1.02147
1.02327
1.01528
1.04623
1.01246
1.05403
1.02513
1.05582
1.02496
1.05677
1.02692
1.04953
1.03526
1.03799
1.02944
1.02801
1.01767
1.05206
0.991224
1.07239
0.999226
1.08837
0.894282
1.7432
1.06136
1.05043
1.07386
1.02624
1.07061
1.04758
1.03975
1.02877
1.02433
1.06078
1.03886
1.05273
1.04142
1.05279
1.04353
1.05106
1.04608
1.04841
1.0433
1.05002
1.04696
1.05196
1.04517
1.04844
1.0392
1.04809
1.03731
1.04269
1.03477
1.0375
1.03116
1.03822
1.03207
1.03411
1.03213
1.02884
1.03314
1.02806
1.03197
1.02455
1.03117
1.024
1.02962
1.02673
1.03181
1.01986
1.03122
1.0199
1.03138
1.01667
1.03193
1.01548
1.032
1.02148
1.03097
1.02393
1.02739
1.0198
1.02516
1.01348
1.04823
1.01337
1.0518
1.02536
1.05439
1.02544
1.05392
1.02728
1.04708
1.03526
1.03585
1.02751
1.0279
1.01488
1.05569
0.99459
1.06958
1.00175
1.08578
0.897272
1.74043
1.04424
1.06528
1.06493
1.08656
1.051
1.09177
1.03983
1.0485
1.04133
1.05796
1.0519
1.06086
1.05654
1.0527
1.06232
1.05137
1.05749
1.04762
1.06054
1.04869
1.0562
1.04412
1.05604
1.04613
1.05089
1.04149
1.04908
1.04091
1.04238
1.04063
1.03799
1.03288
1.03431
1.03524
1.03388
1.02978
1.03457
1.03023
1.03324
1.02725
1.02763
1.02846
1.02319
1.02813
1.02146
1.03088
1.02439
1.03124
1.02573
1.03014
1.01868
1.0336
1.01605
1.03451
1.0199
1.03135
1.02233
1.02717
1.018
1.02695
1.01217
1.05007
1.01427
1.05049
1.02363
1.05309
1.02692
1.05341
1.03124
1.04504
1.03366
1.034
1.02529
1.03008
1.01262
1.05834
0.9979
1.06955
1.00362
1.08322
0.900918
1.73727
1.058
1.05174
1.07702
1.03312
1.06764
1.02841
1.04081
1.0347
1.02376
1.06381
1.04057
1.0557
1.04031
1.05137
1.04368
1.05526
1.04914
1.05373
1.04404
1.0539
1.04692
1.05185
1.04721
1.05057
1.04344
1.05046
1.04046
1.04777
1.0371
1.03964
1.03625
1.04015
1.03095
1.03728
1.03217
1.03511
1.03131
1.03146
1.03254
1.02883
1.03176
1.02643
1.02988
1.02462
1.03003
1.0264
1.02932
1.02056
1.03254
1.02054
1.02991
1.01917
1.03181
1.01439
1.03335
1.01847
1.03223
1.02051
1.02672
1.01582
1.03133
1.01101
1.05071
1.01571
1.04974
1.02322
1.05173
1.02848
1.05142
1.03166
1.04318
1.03454
1.03271
1.02251
1.03392
1.00963
1.06122
1.00033
1.06723
1.00342
1.08085
0.902102
1.73396
1.04204
1.05557
1.06352
1.08716
1.04927
1.0959
1.04132
1.05055
1.03817
1.05505
1.04965
1.05432
1.05514
1.05083
1.05845
1.0509
1.05579
1.05016
1.05963
1.0478
1.05644
1.05
1.05674
1.04608
1.05597
1.04657
1.05262
1.04287
1.0485
1.04049
1.04173
1.03693
1.038
1.03206
1.03673
1.03432
1.03433
1.0328
1.03237
1.03147
1.03307
1.02831
1.02785
1.02839
1.02481
1.02901
1.02297
1.03085
1.02661
1.0327
1.02591
1.02886
1.02106
1.03333
1.01483
1.03597
1.01702
1.03165
1.02014
1.027
1.01363
1.03473
1.01006
1.05187
1.01738
1.0487
1.0244
1.05036
1.03142
1.04882
1.03299
1.04204
1.03272
1.03242
1.02011
1.03885
1.00663
1.06223
1.00372
1.06623
1.00604
1.07935
0.90685
1.73076
1.05544
1.04657
1.07499
1.04838
1.06877
1.03558
1.04282
1.04104
1.02278
1.06513
1.04167
1.06092
1.03637
1.06181
1.04659
1.05809
1.04756
1.05233
1.04929
1.05884
1.04679
1.0559
1.04735
1.05049
1.04598
1.05284
1.0432
1.05089
1.04123
1.04681
1.03676
1.03958
1.03503
1.04175
1.0311
1.03833
1.03264