/*--------------------------------*- C++ -*----------------------------------*\
| =========                 |                                                 |
| \\      /  F ield         | OpenFOAM: The Open Source CFD Toolbox           |
|  \\    /   O peration     | Version:  2206                                  |
|   \\  /    A nd           | Website:  www.openfoam.com                      |
|    \\/     M anipulation  |                                                 |
\*---------------------------------------------------------------------------*/
FoamFile
{
    version     2.0;
    format      ascii;
    arch        "LSB;label=32;scalar=64";
    class       volScalarField;
    location    "180";
    object      pMean;
}
// * * * * * * * * * * * * * * * * * * * * * * * * * * * * * * * * * * * * * //

dimensions      [1 -1 -2 0 0 0 0];

internalField   nonuniform List<scalar> 
93840
(
2.1234
0.636426
2.04762
1.40628
0.666715
1.88033
0.682316
1.21129
0.723339
1.68721
1.15718
0.932772
1.18305
0.813933
1.54777
0.97867
1.12457
0.929534
1.2393
0.860352
1.443
1.09944
0.938871
1.13792
0.851032
1.18585
0.902608
1.39878
0.977699
1.11939
0.929773
1.12959
0.897704
1.16104
0.934736
1.36047
1.09894
0.943355
1.12804
0.987707
1.13079
0.935888
1.11913
0.945004
1.36385
0.976525
1.10574
0.940833
1.09242
0.950488
1.10748
0.966012
1.0998
0.939628
1.3274
1.09806
0.965052
1.11671
0.990153
1.1093
0.980805
1.09364
0.997894
1.08905
0.951834
1.35226
0.97735
1.10013
0.952582
1.08189
0.962259
1.08794
0.97304
1.077
0.997562
1.07941
0.949814
1.33047
1.09673
0.966865
1.10734
0.998679
1.088
0.994542
1.086
1.00547
1.06422
1.00963
1.07427
0.954091
1.34287
0.978962
1.09937
0.96003
1.07352
0.983493
1.07485
0.98238
1.07303
1.00512
1.06683
0.999215
1.07897
0.952003
1.32058
1.09582
0.969754
1.09976
1.00084
1.07597
1.0033
1.07903
1.00589
1.06705
1.01469
1.05801
1.00851
1.07212
0.95615
1.33664
0.980352
1.09813
0.967217
1.06792
0.990577
1.067
0.991768
1.06516
1.00552
1.06488
1.00477
1.06284
1.00177
1.07503
0.954368
1.31219
1.09439
0.973009
1.09275
1.00354
1.06906
1.00885
1.07386
1.00963
1.06881
1.01333
1.06276
1.01574
1.0565
1.00829
1.07175
0.958959
1.32897
0.981996
1.09631
0.973604
1.06315
0.99547
1.0613
0.998924
1.0612
1.00614
1.05938
1.00785
1.0588
1.00767
1.06003
1.0034
1.07208
0.957063
1.30419
1.09256
0.976158
1.08653
1.00628
1.06365
1.01129
1.07006
1.01359
1.06742
1.0147
1.06396
1.01716
1.05613
1.0169
1.05593
1.0101
1.07
0.96161
1.32217
0.983033
1.09469
0.979394
1.05895
0.99988
1.05649
1.0046
1.05874
1.00728
1.05671
1.00957
1.0568
1.01139
1.05578
1.00822
1.05704
1.00572
1.06941
0.959685
1.29793
1.09183
0.980097
1.08126
1.00905
1.05857
1.01301
1.06619
1.01605
1.0661
1.01566
1.06408
1.01845
1.06045
1.02122
1.05346
1.01795
1.05407
1.01149
1.06796
0.964387
1.31533
0.983981
1.09261
0.984646
1.05514
1.00336
1.05211
1.00906
1.05629
1.01154
1.05606
1.01085
1.05377
1.01253
1.05224
1.01226
1.05427
1.01113
1.05452
1.00799
1.06656
0.962539
1.29329
1.09168
0.984027
1.07654
1.01093
1.05459
1.0146
1.06252
1.01888
1.0632
1.01669
1.06282
1.02003
1.06175
1.0206
1.05834
1.02095
1.05029
1.01896
1.05391
1.0135
1.06582
0.967589
1.30758
0.985801
1.09029
0.989035
1.05163
1.00651
1.04852
1.01225
1.05326
1.01598
1.05478
1.01318
1.04993
1.01625
1.05099
1.01528
1.05042
1.01698
1.05162
1.01353
1.05203
1.00991
1.06384
0.965475
1.28957
1.09103
0.987664
1.07232
1.01331
1.05093
1.01555
1.05877
1.02245
1.05912
1.01975
1.05691
1.02465
1.05914
1.02148
1.05779
1.02108
1.05418
1.02281
1.04829
1.0207
1.052
1.01551
1.06401
0.967854
1.28361
0.98789
1.08798
0.99322
1.04802
1.00964
1.04581
1.01495
1.04989
1.01886
1.0509
1.01885
1.04892
1.01882
1.04925
1.01795
1.04887
1.01819
1.04867
1.02054
1.04891
1.01608
1.05041
1.01074
1.0612
0.962249
1.27235
1.09016
0.991502
1.06887
1.01638
1.04756
1.01605
1.05523
1.02523
1.05581
1.02373
1.05577
1.02645
1.0562
1.02522
1.05572
1.02531
1.05651
1.02433
1.05135
1.02313
1.04762
1.02144
1.05122
1.01629
1.0612
0.97939
1.28127
0.9902
1.08548
0.997365
1.04439
1.01218
1.04336
1.01741
1.04675
1.02095
1.04861
1.02081
1.04938
1.02102
1.04883
1.01912
1.04768
1.01923
1.04816
1.01956
1.04737
1.02253
1.04689
1.01685
1.0496
1.01147
1.0554
0.975828
1.27688
1.08918
0.995291
1.06529
1.01898
1.04528
1.01666
1.05187
1.02682
1.05322
1.02602
1.05479
1.02579
1.05484
1.026
1.0536
1.0278
1.05466
1.02515
1.05483
1.02564
1.0499
1.02394
1.04775
1.0203
1.05071
1.0167
1.05742
0.976634
1.28182
0.992686
1.08295
1.00138
1.04158
1.0141
1.04114
1.01945
1.04402
1.02325
1.04695
1.02213
1.04845
1.02196
1.04843
1.02176
1.04724
1.02029
1.04686
1.02035
1.04742
1.02053
1.04633
1.0224
1.04729
1.01677
1.04952
1.01273
1.05691
0.974413
1.27429
1.08799
0.999079
1.06214
1.02161
1.04336
1.01726
1.0488
1.02742
1.05073
1.02733
1.05282
1.02647
1.05388
1.026
1.05353
1.02675
1.05356
1.02726
1.05341
1.02387
1.05297
1.02613
1.04871
1.0233
1.04775
1.01926
1.04982
1.01721
1.05796
0.974196
1.27796
0.995269
1.08028
1.00509
1.03947
1.01559
1.03873
1.02115
1.04176
1.02512
1.04534
1.02432
1.04747
1.02294
1.04821
1.02287
1.04749
1.02274
1.047
1.02127
1.04623
1.02149
1.04639
1.02164
1.04643
1.02141
1.04716
1.01735
1.04829
1.01303
1.0583
0.973733
1.2702
1.08648
1.00306
1.05911
1.02326
1.04202
1.01811
1.04629
1.02751
1.04867
1.02827
1.05044
1.0264
1.05235
1.02727
1.05262
1.02656
1.05278
1.02736
1.05251
1.02733
1.05297
1.0261
1.05209
1.02518
1.04827
1.02349
1.04784
1.01897
1.0485
1.01641
1.05816
0.976378
1.27272
0.997887
1.07719
1.0085
1.03786
1.01692
1.03657
1.02255
1.03962
1.02708
1.04349
1.02534
1.04589
1.02457
1.04763
1.02411
1.04745
1.02447
1.04674
1.02291
1.04675
1.02217
1.04593
1.02223
1.04573
1.02168
1.04614
1.02118
1.04691
1.01813
1.0479
1.01244
1.0563
0.975767
1.26516
1.0847
1.00695
1.05656
1.02516
1.04093
1.01878
1.0441
1.02789
1.04644
1.02792
1.04841
1.02865
1.05036
1.0277
1.04981
1.02745
1.05186
1.02738
1.05198
1.02805
1.05142
1.02759
1.05148
1.0263
1.05107
1.02579
1.04773
1.02324
1.04699
1.01947
1.04805
1.01725
1.05712
0.973402
1.2677
1.00035
1.07422
1.01139
1.03642
1.01801
1.03446
1.02381
1.03726
1.02845
1.04166
1.02703
1.04401
1.02568
1.04551
1.02695
1.04714
1.02594
1.04612
1.02527
1.04626
1.02404
1.04694
1.02266
1.04622
1.02289
1.04458
1.02253
1.04534
1.02142
1.04601
1.0184
1.04787
1.01294
1.06046
0.97346
1.26036
1.08292
1.01063
1.05452
1.02672
1.04009
1.01937
1.04224
1.02838
1.0446
1.0281
1.04663
1.02864
1.04737
1.02898
1.04963
1.02745
1.05024
1.02791
1.05093
1.02797
1.05035
1.02711
1.05064
1.02702
1.05087
1.02688
1.04966
1.02551
1.04737
1.02385
1.04614
1.02
1.04782
1.01399
1.05959
0.976826
1.26279
1.00271
1.07172
1.01401
1.03518
1.01893
1.03248
1.0249
1.03519
1.02888
1.03949
1.02839
1.04166
1.02737
1.04424
1.02675
1.04427
1.02823
1.04541
1.02806
1.04536
1.02635
1.04638
1.02517
1.04672
1.02423
1.04574
1.02441
1.04448
1.02396
1.04474
1.02206
1.04535
1.01864
1.04721
1.01274
1.05694
0.976835
1.25568
1.08102
1.01341
1.05304
1.02804
1.03946
1.02005
1.04065
1.02859
1.04322
1.02866
1.04506
1.02844
1.04622
1.02916
1.0467
1.02942
1.04866
1.02882
1.04926
1.02711
1.05091
1.02848
1.05068
1.02725
1.05016
1.0271
1.0496
1.02697
1.04889
1.0256
1.04623
1.02399
1.04557
1.01954
1.04754
1.01549
1.05645
0.979691
1.25791
1.00491
1.06964
1.01644
1.03396
1.01971
1.03062
1.0259
1.03323
1.02868
1.03783
1.02912
1.04012
1.02885
1.04191
1.02781
1.04383
1.02831
1.04489
1.02957
1.04536
1.02813
1.04483
1.02669
1.04586
1.0263
1.0466
1.02523
1.04558
1.0249
1.04466
1.0245
1.04504
1.02215
1.04561
1.01882
1.047
1.0139
1.05567
0.974159
1.25099
1.07932
1.01617
1.05214
1.02889
1.03891
1.0207
1.03918
1.02854
1.04191
1.02895
1.04337
1.0279
1.04442
1.02838
1.04509
1.02938
1.04661
1.02957
1.04727
1.02892
1.04848
1.02842
1.04989
1.02892
1.04965
1.02802
1.0495
1.02749
1.04933
1.02701
1.04845
1.02557
1.04582
1.02352
1.04562
1.01925
1.04759
1.01557
1.06063
0.977214
1.2533
1.00706
1.06752
1.01861
1.03301
1.02048
1.02888
1.0268
1.03168
1.02844
1.03625
1.02883
1.03847
1.03063
1.03977
1.02932
1.0415
1.02887
1.04384
1.02915
1.04503
1.03003
1.04491
1.02896
1.04515
1.02726
1.0456
1.02698
1.04609
1.02582
1.04542
1.02504
1.04456
1.02463
1.04489
1.02219
1.04562
1.01856
1.04685
1.0114
1.05817
0.977759
1.24615
1.07756
1.01889
1.05134
1.02941
1.03848
1.02125
1.03786
1.02821
1.04074
1.02932
1.042
1.0287
1.04279
1.02624
1.04338
1.02916
1.04527
1.02972
1.04612
1.02979
1.04698
1.02938
1.04796
1.02887
1.04882
1.02936
1.04898
1.02831
1.04895
1.02778
1.04876
1.02703
1.04789
1.02557
1.04561
1.02308
1.04565
1.01901
1.04761
1.0143
1.05728
0.980991
1.24942
1.00933
1.06562
1.02082
1.03223
1.0213
1.02736
1.02754
1.0305
1.02822
1.0347
1.02844
1.03678
1.0297
1.03851
1.03064
1.03978
1.03006
1.04182
1.02978
1.04368
1.02978
1.04448
1.03054
1.04475
1.02922
1.0451
1.02793
1.04533
1.02749
1.04558
1.02621
1.04522
1.02531
1.04414
1.02451
1.04466
1.02208
1.04544
1.01818
1.04644
1.01305
1.05469
0.981087
1.24265
1.07582
1.02134
1.05073
1.02993
1.03819
1.02186
1.03675
1.02786
1.03978
1.02909
1.04056
1.02931
1.04134
1.02813
1.04285
1.02895
1.04281
1.02928
1.04395
1.03009
1.04542
1.02933
1.04637
1.02935
1.04713
1.02936
1.04785
1.02891
1.04863
1.02842
1.04848
1.02769
1.04822
1.02722
1.04747
1.02564
1.0455
1.02279
1.04551
1.01869
1.0478
1.01543
1.05428
0.98294
1.24585
1.01154
1.06391
1.02249
1.0316
1.02201
1.02592
1.02803
1.02966
1.02799
1.03313
1.02803
1.03535
1.02833
1.03707
1.03036
1.0383
1.03031
1.04067
1.03098
1.04165
1.03026
1.04361
1.03032
1.04417
1.0309
1.04427
1.02919
1.04531
1.02847
1.04512
1.02809
1.04519
1.02702
1.0448
1.0255
1.04419
1.02426
1.04452
1.02196
1.04515
1.01773
1.04652
1.01365
1.05395
0.978129
1.23887
1.07416
1.02379
1.0507
1.03057
1.03807
1.02254
1.03583
1.02753
1.03895
1.02832
1.03951
1.02907
1.04036
1.02924
1.0411
1.0284
1.04092
1.02939
1.04222
1.02986
1.044
1.0303
1.04526
1.03003
1.04582
1.02988
1.04647
1.03008
1.0478
1.02832
1.04832
1.02819
1.04771
1.02771
1.04765
1.02716
1.04702
1.02537
1.04527
1.0226
1.04581
1.01847
1.04787
1.01537
1.05783
0.980016
1.24183
1.01385
1.06236
1.02391
1.03095
1.02253
1.0246
1.02828
1.02896
1.02776
1.0321
1.02863
1.03404
1.02858
1.03528
1.02901
1.0368
1.03066
1.03931
1.03056
1.04066
1.03098
1.04149
1.03059
1.04331
1.03068
1.04344
1.03114
1.04317
1.02953
1.04484
1.0283
1.04504
1.0285
1.04522
1.02723
1.04481
1.02556
1.04387
1.02448
1.04435
1.02172
1.0452
1.01717
1.04639
1.0114
1.0561
0.98004
1.23462
1.07228
1.02619
1.05074
1.03118
1.03813
1.02321
1.03506
1.02723
1.03792
1.02782
1.03818
1.02727
1.03853
1.02795
1.03913
1.0292
1.04118
1.02854
1.04232
1.02956
1.04186
1.02977
1.04364
1.03058
1.04432
1.03073
1.04551
1.03002
1.04573
1.03056
1.04751
1.0293
1.04785
1.02837
1.04757
1.02788
1.0473
1.0272
1.04665
1.02529
1.04515
1.02245
1.0453
1.01833
1.04725
1.0141
1.05572
0.981601
1.23763
1.01601
1.06127
1.02529
1.03034
1.02287
1.02354
1.02836
1.02828
1.02761
1.03149
1.0282
1.03322
1.02873
1.03483
1.02936
1.03556
1.02959
1.0369
1.03018
1.03911
1.03097
1.04093
1.03103
1.04146
1.0305
1.04267
1.03076
1.04334
1.03146
1.04291
1.02986
1.04389
1.02918
1.04475
1.02853
1.045
1.02716
1.04456
1.02582
1.04365
1.02446
1.04426
1.02165
1.04442
1.01825
1.04612
1.0123
1.05422
0.981487
1.23051
1.07057
1.02848
1.05098
1.03152
1.03829
1.02376
1.03443
1.02697
1.03713
1.02726
1.03778
1.02708
1.03835
1.02752
1.03801
1.02766
1.03917
1.02899
1.0401
1.02927
1.04169
1.03007
1.04167
1.03045
1.04317
1.03083
1.04448
1.03105
1.04501
1.03045
1.0454
1.03085
1.04627
1.02975
1.04739
1.02853
1.04718
1.02804
1.04682
1.02695
1.04625
1.02542
1.04494
1.02264
1.04436
1.0188
1.04692
1.01449
1.05526
0.979211
1.2338
1.01802
1.06018
1.02649
1.0299
1.02316
1.0227
1.02828
1.02762
1.02752
1.03081
1.02745
1.03223
1.02828
1.03323
1.02885
1.03539
1.02884
1.03611
1.02944
1.03745
1.03028
1.0388
1.03107
1.04041
1.03077
1.04155
1.03119
1.04225
1.031
1.04257
1.03158
1.04258
1.03026
1.04338
1.02926
1.04424
1.02874
1.04442
1.02729
1.04413
1.02599
1.04291
1.02465
1.04399
1.02226
1.04373
1.01854
1.04584
1.01224
1.05688
0.980003
1.22676
1.06881
1.03063
1.05153
1.03154
1.0385
1.02414
1.03388
1.02676
1.03644
1.02651
1.03709
1.02711
1.03721
1.02686
1.03702
1.02739
1.03811
1.02889
1.03863
1.02874
1.04064
1.02985
1.04115
1.03011
1.04198
1.03059
1.04273
1.03096
1.04402
1.03125
1.04458
1.03079
1.04523
1.03111
1.04595
1.03003
1.04688
1.02863
1.047
1.02797
1.04656
1.02716
1.04525
1.02545
1.04424
1.02348
1.04362
1.01872
1.04641
1.01251
1.05595
0.981986
1.23014
1.02002
1.05933
1.02774
1.02957
1.02344
1.02208
1.02815
1.02704
1.02757
1.03029
1.02718
1.03182
1.02754
1.03275
1.02893
1.03439
1.02923
1.03603
1.02892
1.03665
1.02977
1.03733
1.03042
1.03865
1.03137
1.04028
1.03129
1.04094
1.03146
1.04182
1.03132
1.04209
1.03155
1.04226
1.03051
1.04323
1.02943
1.04406
1.0288
1.0442
1.02723
1.04375
1.02645
1.0431
1.0247
1.04267
1.02349
1.04358
1.01854
1.04564
1.01167
1.05422
0.982138
1.22288
1.06716
1.03207
1.05164
1.03089
1.03865
1.02428
1.0334
1.02645
1.03596
1.02582
1.03634
1.0263
1.03531
1.02678
1.03743
1.02719
1.03696
1.02743
1.03705
1.02884
1.03862
1.02917
1.03979
1.0302
1.04077
1.03036
1.04183
1.03092
1.04309
1.03103
1.04357
1.03149
1.04409
1.03094
1.04495
1.0309
1.04503
1.03011
1.04652
1.02869
1.04653
1.0282
1.04593
1.02711
1.04496
1.02608
1.04287
1.02359
1.04336
1.01863
1.04609
1.01422
1.05392
0.982636
1.22631
1.0219
1.05907
1.02882
1.03053
1.02373
1.02165
1.02805
1.02651
1.02759
1.02997
1.02709
1.03025
1.02756
1.03243
1.02816
1.03309
1.02888
1.03473
1.02964
1.03537
1.02907
1.0364
1.03026
1.03781
1.03046
1.0388
1.0309
1.04011
1.0315
1.04074
1.03172
1.04132
1.03145
1.04187
1.03128
1.04198
1.03077
1.04279
1.02934
1.04365
1.02889
1.04385
1.02734
1.04344
1.02661
1.04266
1.02539
1.04261
1.02357
1.04315
1.01846
1.04548
1.01257
1.05328
0.982753
1.21911
1.06572
1.03349
1.05172
1.03088
1.03865
1.02439
1.03302
1.02601
1.03577
1.02513
1.03537
1.02536
1.03597
1.02639
1.03582
1.02655
1.03589
1.02771
1.03636
1.02804
1.03757
1.02936
1.03823
1.0291
1.03882
1.03044
1.0405
1.03102
1.04152
1.03089
1.04265
1.03101
1.04327
1.03161
1.04365
1.03118
1.04464
1.03093
1.04494
1.03013
1.04617
1.02867
1.04612
1.02832
1.04569
1.02708
1.04435
1.02604
1.04248
1.02365
1.04284
1.01857
1.04571
1.01412
1.05272
0.98403
1.22272
1.02368
1.05865
1.03006
1.03024
1.02412
1.02127
1.02792
1.02599
1.02758
1.02952
1.02674
1.03121
1.02685
1.03126
1.02751
1.03259
1.02875
1.03347
1.02835
1.03459
1.02951
1.03495
1.02979
1.03666
1.03066
1.0381
1.031
1.03885
1.0313
1.04011
1.03135
1.04074
1.03183
1.04126
1.03145
1.04163
1.03129
1.04151
1.03086
1.0425
1.02962
1.04329
1.02888
1.04352
1.02752
1.04314
1.02692
1.04249
1.02569
1.04217
1.02345
1.04237
1.0183
1.04497
1.01262
1.05177
0.984015
1.21564
1.06443
1.03473
1.05171
1.03109
1.03861
1.02455
1.03274
1.02556
1.03576
1.02458
1.03523
1.02537
1.03517
1.02603
1.0351
1.0265
1.03556
1.02708
1.03579
1.02839
1.03646
1.02865
1.0373
1.02882
1.03779
1.02971
1.03835
1.03053
1.04034
1.031
1.04115
1.03134
1.04246
1.03131
1.04301
1.03162
1.04324
1.03114
1.04416
1.03078
1.0447
1.02991
1.04591
1.02887
1.04573
1.02833
1.04512
1.02706
1.04398
1.02567
1.0421
1.02391
1.04262
1.01858
1.0454
1.01413
1.05167
0.983662
1.21934
1.02549
1.05837
1.03075
1.02999
1.02456
1.02096
1.02771
1.02543
1.02757
1.02906
1.0266
1.0301
1.02666
1.03055
1.02754
1.03157
1.02814
1.03286
1.02878
1.03394
1.02885
1.03491
1.02957
1.03545
1.02996
1.0371
1.03075
1.0385
1.03106
1.03899
1.03132
1.03986
1.03154
1.04034
1.03179
1.04102
1.03144
1.04141
1.03136
1.04159
1.03083
1.04237
1.02947
1.04306
1.0288
1.04307
1.0277
1.0428
1.02697
1.04218
1.02607
1.0416
1.0234
1.04189
1.01821
1.04469
1.0128
1.05216
0.983478
1.21233
1.06287
1.0359
1.05219
1.03131
1.03851
1.02479
1.03256
1.02517
1.0358
1.02425
1.03527
1.02505
1.03506
1.02524
1.03444
1.0261
1.03445
1.02642
1.03476
1.02756
1.0359
1.02837
1.0363
1.02893
1.037
1.02958
1.03753
1.03014
1.03819
1.03056
1.03992
1.03124
1.04122
1.03131
1.04227
1.0315
1.04269
1.03151
1.04279
1.03114
1.04373
1.03066
1.04428
1.02998
1.04541
1.02895
1.0454
1.02831
1.04481
1.02702
1.04351
1.02567
1.04174
1.02404
1.04222
1.01847
1.04478
1.01337
1.05233
0.9837
1.21595
1.0273
1.05818
1.03165
1.0297
1.02501
1.02073
1.02744
1.02485
1.02757
1.02865
1.02613
1.02982
1.02642
1.03031
1.02722
1.03151
1.02779
1.03244
1.02877
1.03336
1.02888
1.034
1.02897
1.03481
1.02941
1.03555
1.02996
1.03701
1.03062
1.03832
1.03126
1.03916
1.03137
1.03964
1.03162
1.04034
1.0317
1.04088
1.03158
1.04109
1.03116
1.04122
1.03071
1.04202
1.0294
1.0429
1.02879
1.04275
1.02778
1.0424
1.02696
1.04192
1.0261
1.04115
1.02318
1.04153
1.01801
1.04404
1.01243
1.05182
0.983798
1.20912
1.0617
1.03708
1.05191
1.03161
1.0384
1.02511
1.03239
1.02478
1.03579
1.02417
1.03491
1.02519
1.03466
1.02545
1.03441
1.02607
1.03321
1.02621
1.0344
1.02684
1.03466
1.02772
1.03563
1.02849
1.03617
1.02927
1.037
1.02981
1.03758
1.03033
1.03853
1.03085
1.03951
1.03132
1.0411
1.03139
1.042
1.03158
1.04229
1.03148
1.04254
1.03116
1.04359
1.03056
1.04392
1.03007
1.04489
1.02895
1.04501
1.02814
1.0444
1.02699
1.04308
1.02569
1.04132
1.02399
1.04183
1.01871
1.04402
1.01298
1.05108
0.985079
1.21244
1.0287
1.05797
1.03278
1.02946
1.02549
1.02057
1.02713
1.02429
1.02753
1.02789
1.02633
1.02924
1.02653
1.03018
1.02642
1.03057
1.0273
1.03193
1.0279
1.03253
1.02879
1.03325
1.029
1.03376
1.02936
1.035
1.02939
1.03561
1.03015
1.03697
1.03086
1.03814
1.03121
1.03928
1.03145
1.03959
1.03167
1.04023
1.03148
1.04059
1.03158
1.0408
1.03087
1.04107
1.0305
1.04189
1.02949
1.0426
1.02871
1.04234
1.02767
1.04191
1.02705
1.04156
1.02604
1.04066
1.023
1.0411
1.01826
1.04334
1.01245
1.05042
0.983284
1.20586
1.06068
1.03843
1.05155
1.03198
1.0383
1.02543
1.0322
1.02439
1.03576
1.0242
1.0352
1.02534
1.03412
1.02484
1.03339
1.02627
1.03447
1.02624
1.03427
1.0263
1.03448
1.02717
1.03475
1.0277
1.03558
1.0286
1.03587
1.02966
1.03687
1.03006
1.03758
1.03039
1.03844
1.03107
1.03951
1.03129
1.04106
1.03142
1.04162
1.03189
1.04219
1.03141
1.0423
1.0314
1.04322
1.03058
1.04353
1.02994
1.04467
1.02904
1.04473
1.02832
1.04421
1.02695
1.04258
1.02574
1.04095
1.02384
1.04129
1.01886
1.0435
1.01336
1.05181
0.983755
1.20913
1.03
1.05754
1.03391
1.0292
1.02603
1.02046
1.02682
1.0238
1.02747
1.02727
1.02624
1.02905
1.0258
1.02943
1.02704
1.03025
1.02681
1.03056
1.02758
1.03208
1.02821
1.03267
1.0285
1.03327
1.02905
1.03389
1.02956
1.0349
1.02951
1.03562
1.03034
1.03696
1.03101
1.03822
1.03117
1.03917
1.03145
1.03937
1.03164
1.04009
1.03143
1.04042
1.03141
1.04054
1.03079
1.04103
1.03036
1.04178
1.02926
1.04216
1.02868
1.042
1.02769
1.04148
1.02714
1.04115
1.0259
1.04018
1.02287
1.04047
1.01859
1.04284
1.01172
1.05099
0.983836
1.20285
1.05978
1.03957
1.05124
1.03244
1.03838
1.02569
1.03197
1.02401
1.03568
1.02402
1.03547
1.02517
1.0344
1.02566
1.03403
1.02574
1.03359
1.02637
1.03372
1.0267
1.03365
1.02679
1.03443
1.02753
1.03491
1.02827
1.03536
1.02886
1.03576
1.02967
1.03677
1.03005
1.03752
1.03062
1.03834
1.03108
1.03947
1.03138
1.04076
1.03146
1.0414
1.03188
1.04187
1.03147
1.04208
1.03124
1.04293
1.03041
1.04315
1.03029
1.04415
1.02918
1.04436
1.02829
1.04368
1.02701
1.04203
1.02579
1.04047
1.02383
1.04061
1.01901
1.04285
1.01281
1.05047
0.98432
1.20606
1.0311
1.05722
1.03498
1.02897
1.02657
1.02038
1.02659
1.02339
1.02738
1.02687
1.02642
1.02848
1.02558
1.02864
1.02653
1.03007
1.02709
1.03011
1.02746
1.03094
1.02764
1.03195
1.02825
1.03286
1.02879
1.03325
1.02919
1.03417
1.02966
1.03495
1.02984
1.03573
1.03046
1.03695
1.03096
1.03797
1.03136
1.03913
1.03148
1.03948
1.0316
1.04003
1.03144
1.04023
1.03136
1.04037
1.03064
1.04087
1.02993
1.04166
1.02927
1.04156
1.02864
1.0417
1.02775
1.04105
1.02723
1.04072
1.02564
1.03976
1.02295
1.03965
1.01903
1.04217
1.01203
1.04944
0.984576
1.19993
1.05872
1.04057
1.05094
1.03283
1.03838
1.02585
1.03171
1.02364
1.03555
1.02383
1.03554
1.02439
1.0347
1.02525
1.03427
1.02563
1.03311
1.02566
1.03365
1.02627
1.0332
1.02699
1.03407
1.02702
1.03428
1.02758
1.03468
1.0284
1.03522
1.02904
1.03568
1.02961
1.03678
1.03005
1.03745
1.03076
1.03817
1.03099
1.03938
1.0314
1.04056
1.03164
1.04122
1.03182
1.04161
1.03136
1.04192
1.03107
1.04263
1.03046
1.04277
1.03026
1.04393
1.0291
1.04386
1.02831
1.04314
1.02692
1.04142
1.02569
1.04004
1.02378
1.03952
1.0194
1.04189
1.01311
1.04871
0.98514
1.2028
1.03239
1.05696
1.03615
1.02889
1.02721
1.02038
1.02642
1.02309
1.02723
1.02657
1.02645
1.02904
1.02575
1.02965
1.02609
1.02977
1.02626
1.0308
1.02708
1.03037
1.02793
1.03168
1.02761
1.03202
1.02829
1.033
1.02882
1.03368
1.02931
1.03432
1.02971
1.03514
1.02997
1.03581
1.03053
1.03698
1.03101
1.03822
1.03145
1.03886
1.03165
1.0394
1.03161
1.03986
1.03144
1.04005
1.03121
1.04027
1.03055
1.0408
1.02993
1.04141
1.02928
1.0413
1.02871
1.0412
1.02772
1.04071
1.02725
1.04032
1.02543
1.03923
1.02309
1.03887
1.01953
1.04142
1.01238
1.04783
0.985602
1.1968
1.05794
1.04144
1.05075
1.03311
1.03832
1.02597
1.03143
1.02326
1.03536
1.02366
1.0357
1.02393
1.03434
1.02409
1.03303
1.02497
1.03242
1.02621
1.03202
1.02643
1.03336
1.0266
1.03291
1.02746
1.03384
1.02733
1.03415
1.02762
1.03463
1.02855
1.03513
1.02905
1.03577
1.0296
1.03676
1.03024
1.03747
1.03063
1.03827
1.03107
1.0391
1.0315
1.04023
1.03165
1.04105
1.03172
1.04147
1.03126
1.04162
1.03088
1.04233
1.03037
1.0426
1.03015
1.04338
1.02922
1.04352
1.02819
1.04269
1.02677
1.04087
1.02561
1.03971
1.02338
1.03853
1.0195
1.041
1.01317
1.04811
0.984001
1.1993
1.03326
1.05679
1.03713
1.02897
1.02789
1.02037
1.02632
1.02288
1.02705
1.02638
1.02627
1.0286
1.02604
1.03015
1.02644
1.0301
1.02689
1.03013
1.0267
1.03039
1.02677
1.0304
1.02791
1.03166
1.02784
1.03212
1.0284
1.03271
1.02886
1.03369
1.02932
1.0345
1.02992
1.03521
1.03006
1.03588
1.03058
1.03695
1.03115
1.03811
1.03154
1.03906
1.03168
1.03951
1.03161
1.03981
1.03145
1.03994
1.03111
1.04023
1.03044
1.04071
1.02983
1.04125
1.02931
1.04083
1.02864
1.04092
1.02759
1.0404
1.0272
1.03986
1.02529
1.03892
1.02365
1.03851
1.01972
1.0408
1.01225
1.04938
0.984544
1.19357
1.0572
1.04219
1.0506
1.03329
1.0382
1.02603
1.03115
1.02287
1.03511
1.0235
1.03578
1.02381
1.03512
1.02298
1.03224
1.02453
1.03242
1.02581
1.03132
1.02686
1.03182
1.02713
1.0332
1.02709
1.03266
1.02749
1.03358
1.0275
1.03447
1.02798
1.03479
1.02862
1.03508
1.02898
1.03579
1.02973
1.03664
1.03013
1.03755
1.03071
1.03837
1.0311
1.03916
1.03146
1.04016
1.03161
1.04089
1.03159
1.04121
1.03109
1.04153
1.03074
1.04207
1.03029
1.04231
1.03008
1.04301
1.02908
1.04317
1.028
1.04224
1.0266
1.04056
1.02538
1.03939
1.02296
1.03803
1.01941
1.04039
1.01167
1.04893
0.98511
1.19568
1.03413
1.05662
1.03816
1.0291
1.02847
1.0204
1.02625
1.02271
1.02685
1.02624
1.02606
1.02863
1.02584
1.02898
1.02707
1.03007
1.02672
1.0304
1.02717
1.0303
1.02685
1.0309
1.02717
1.0306
1.02768
1.03181
1.02797
1.03244
1.02827
1.0329
1.02891
1.03368
1.0293
1.03454
1.02996
1.03512
1.0301
1.03582
1.03071
1.03695
1.03116
1.03805
1.03158
1.039
1.03161
1.0395
1.03159
1.03973
1.03139
1.03973
1.03103
1.04014
1.03033
1.04049
1.02971
1.04078
1.02888
1.0407
1.02856
1.04063
1.0275
1.04004
1.02706
1.03944
1.02511
1.03863
1.02348
1.03811
1.01971
1.04029
1.01156
1.04767
0.98578
1.19062
1.05647
1.04295
1.05055
1.0335
1.03809
1.02608
1.03094
1.0225
1.03482
1.02335
1.03574
1.02377
1.03447
1.02402
1.03334
1.02438
1.03204
1.02551
1.03168
1.02636
1.0317
1.02695
1.03163
1.02695
1.03255
1.0274
1.03253
1.02763
1.03332
1.02772
1.03437
1.02819
1.03476
1.02882
1.03493
1.02914
1.03578
1.02976
1.03685
1.03021
1.03747
1.03081
1.03826
1.03109
1.0392
1.03159
1.04
1.03157
1.04071
1.03151
1.04119
1.03098
1.04139
1.03057
1.0419
1.03025
1.04215
1.03041
1.04263
1.02892
1.04275
1.0278
1.04179
1.02651
1.04009
1.02515
1.03897
1.02285
1.03749
1.01925
1.03977
1.01207
1.04715
0.985596
1.19025
1.03522
1.05647
1.03911
1.02924
1.029
1.02043
1.0262
1.02257
1.02665
1.02615
1.02598
1.02854
1.02576
1.02901
1.02629
1.02902
1.02701
1.03016
1.02676
1.03033
1.02698
1.03045
1.02702
1.03099
1.02744
1.03136
1.02795
1.03192
1.02816
1.03245
1.02842
1.03301
1.02899
1.03373
1.02939
1.03475
1.02996
1.0352
1.03029
1.03587
1.03078
1.03708
1.03115
1.0381
1.03159
1.03888
1.03164
1.03951
1.03148
1.03964
1.0313
1.03964
1.03091
1.04006
1.03024
1.04038
1.02957
1.04068
1.02882
1.04041
1.0282
1.0404
1.02736
1.03965
1.02689
1.03895
1.02497
1.03826
1.02331
1.03753
1.01948
1.03952
1.0123
1.04668
0.983934
1.18525
1.05587
1.04363
1.05043
1.03373
1.03797
1.02615
1.03078
1.02213
1.03452
1.02324
1.03545
1.02353
1.0344
1.02374
1.03221
1.02489
1.03236
1.02513
1.03181
1.02589
1.0312
1.0262
1.0316
1.02708
1.0317
1.0272
1.03187
1.02749
1.03249
1.02769
1.03329
1.02788
1.03413
1.02822
1.03477
1.02885
1.03496
1.02922
1.03583
1.02986
1.03675
1.03025
1.03745
1.03084
1.03829
1.03122
1.03907
1.03159
1.03994
1.03157
1.04068
1.0314
1.041
1.03088
1.04121
1.03042
1.04174
1.03008
1.04194
1.03025
1.04229
1.02906
1.04238
1.02775
1.04132
1.02621
1.03981
1.02494
1.03861
1.02271
1.03703
1.01915
1.03925
1.01199
1.04755
0.987855
1.187
1.03583
1.05628
1.04017
1.02942
1.0294
1.02048
1.02616
1.02247
1.02641
1.0261
1.02589
1.02837
1.02565
1.02814
1.02626
1.02932
1.02688
1.02954
1.02639
1.03008
1.02685
1.03033
1.02706
1.03045
1.02702
1.03105
1.0274
1.03155
1.02792
1.032
1.02822
1.0324
1.02854
1.03318
1.02905
1.03375
1.02938
1.03471
1.03005
1.03519
1.03028
1.03604
1.03079
1.03717
1.0311
1.03808
1.03162
1.03885
1.03167
1.03949
1.03144
1.03951
1.03119
1.03957
1.03081
1.04006
1.03009
1.04028
1.02953
1.04045
1.02867
1.04019
1.02807
1.04018
1.02729
1.03936
1.02679
1.03857
1.02479
1.03796
1.02312
1.03719
1.0194
1.03901
1.01127
1.04597
0.98786
1.18257
1.05539
1.0443
1.05034
1.03393
1.03791
1.02626
1.03067
1.02176
1.03423
1.02316
1.0352
1.02355
1.0344
1.02307
1.03199
1.02509
1.03209
1.02446
1.03106
1.02564
1.03137
1.02633
1.03144
1.02645
1.03179
1.02702
1.03163
1.02739
1.03196
1.02761
1.03246
1.02792
1.03346
1.028
1.03416
1.0283
1.03476
1.02901
1.03509
1.02933
1.03593
1.02991
1.03674
1.03037
1.03746
1.03098
1.03829
1.03124
1.03887
1.03162
1.03983
1.03146
1.04051
1.0313
1.04078
1.03082
1.04114
1.0303
1.04158
1.03003
1.04161
1.03022
1.04196
1.02884
1.04199
1.02753
1.04087
1.02603
1.03946
1.02465
1.03828
1.02245
1.03685
1.01894
1.03875
1.01158
1.04615
0.988033
1.18412
1.03656
1.05619
1.04101
1.02962
1.02973
1.02055
1.02612
1.02241
1.02615
1.02606
1.02575
1.02828
1.02551
1.02787
1.02723
1.0288
1.02655
1.02955
1.02632
1.03016
1.02671
1.0302
1.02676
1.03029
1.02699
1.03049
1.02675
1.03073
1.02745
1.03147
1.02804
1.03205
1.02823
1.03246
1.0285
1.03318
1.02909
1.03382
1.02935
1.03474
1.03006
1.0352
1.03026
1.03607
1.03083
1.0371
1.03113
1.0381
1.0317
1.039
1.03167
1.03948
1.03133
1.03953
1.03112
1.03935
1.03061
1.04002
1.02999
1.04015
1.02944
1.04035
1.02857
1.04005
1.02795
1.03996
1.02712
1.03907
1.02646
1.03832
1.02459
1.03766
1.02278
1.03691
1.01917
1.03848
1.01136
1.0454
0.988203
1.17999
1.05489
1.04495
1.05033
1.03409
1.03782
1.02632
1.0306
1.02141
1.03392
1.02313
1.03505
1.02323
1.03355
1.02364
1.03159
1.02469
1.03164
1.02529
1.03117
1.02615
1.03084
1.02601
1.0308
1.02625
1.03154
1.02652
1.03164
1.02704
1.03199
1.02733
1.03214
1.02759
1.03261
1.02786
1.03345
1.02801
1.03418
1.02838
1.03474
1.02911
1.03512
1.02939
1.03599
1.02993
1.03672
1.03034
1.03752
1.03092
1.03825
1.0313
1.03885
1.0316
1.03975
1.03149
1.04046
1.03121
1.04084
1.03076
1.04098
1.03019
1.04129
1.02991
1.04137
1.02995
1.04164
1.02862
1.04154
1.02737
1.04038
1.02587
1.03911
1.02435
1.03803
1.02203
1.03645
1.01876
1.03816
1.01181
1.04501
0.988413
1.18143
1.03724
1.05605
1.04175
1.02989
1.03
1.02072
1.02608
1.02238
1.02588
1.02596
1.02581
1.02782
1.02582
1.02879
1.02659
1.02884
1.02674
1.02918
1.02628
1.02988
1.0266
1.03008
1.02683
1.03025
1.0268
1.03023
1.02693
1.03053
1.02705
1.03084
1.02734
1.03141
1.02795
1.03208
1.02824
1.0324
1.02862
1.03314
1.02909
1.03383
1.0294
1.03475
1.03007
1.03521
1.03038
1.03612
1.0309
1.0372
1.03125
1.03808
1.03172
1.03899
1.03168
1.03948
1.03132
1.03945
1.03109
1.03929
1.03059
1.03993
1.02994
1.03989
1.02937
1.04016
1.02851
1.03979
1.02788
1.03966
1.02692
1.03884
1.02614
1.03807
1.0244
1.03742
1.02254
1.03644
1.019
1.03796
1.01152
1.04414
0.988378
1.17661
1.05451
1.04558
1.05033
1.03436
1.03768
1.02638
1.03057
1.02109
1.0336
1.02311
1.03461
1.02373
1.03214
1.02374
1.03137
1.02487
1.0315
1.02532
1.03094
1.02583
1.03056
1.02634
1.03095
1.02606
1.03113
1.02623
1.03154
1.02663
1.03178
1.02704
1.03185
1.02743
1.03205
1.02755
1.03264
1.02792
1.03351
1.02808
1.03415
1.02839
1.03478
1.0291
1.03508
1.02949
1.036
1.02997
1.03669
1.03045
1.03749
1.03082
1.03829
1.03131
1.0388
1.03158
1.03968
1.03145
1.04038
1.03112
1.04067
1.0307
1.04084
1.03026
1.04118
1.02973
1.04112
1.02973
1.0412
1.02844
1.04102
1.02724
1.03998
1.02565
1.03881
1.02404
1.03773
1.02167
1.03618
1.01854
1.03768
1.01211
1.04397
0.987862
1.17552
1.03779
1.05598
1.04249
1.02999
1.03032
1.02089
1.02601
1.02237
1.02561
1.02588
1.02593
1.02784
1.02646
1.02847
1.02606
1.02862
1.02659
1.02895
1.02647
1.02967
1.02669
1.03015
1.02654
1.02985
1.02707
1.03021
1.02699
1.03017
1.02685
1.03054
1.0271
1.03086
1.02736
1.03165
1.02795
1.03206
1.02834
1.03251
1.02867
1.03323
1.02915
1.03381
1.02948
1.03483
1.03009
1.03532
1.03039
1.03623
1.03091
1.03724
1.03134
1.03801
1.03169
1.03887
1.03172
1.03935
1.03129
1.03938
1.03102
1.03932
1.0305
1.03984
1.02982
1.03974
1.02939
1.0399
1.02833
1.03959
1.02783
1.03919
1.02675
1.03855
1.0259
1.03785
1.02419
1.03718
1.02226
1.036
1.01869
1.03749
1.01156
1.04382
0.990434
1.17278
1.05421
1.04614
1.0503
1.03458
1.03752
1.02645
1.03057
1.02081
1.03326
1.02307
1.03433
1.02355
1.03266
1.02394
1.0314
1.02483
1.03115
1.02546
1.03058
1.02587
1.03068
1.02615
1.03035
1.02649
1.03068
1.02624
1.03107
1.02636
1.03157
1.02666
1.03163
1.02711
1.03188
1.02742
1.03203
1.02761
1.03266
1.02786
1.03347
1.02806
1.03418
1.0285
1.03486
1.02914
1.03513
1.02953
1.036
1.02996
1.03664
1.03051
1.03749
1.03094
1.03827
1.03138
1.03886
1.03156
1.03966
1.03136
1.04025
1.03107
1.04053
1.03064
1.04065
1.03021
1.04096
1.02965
1.0409
1.02969
1.04093
1.0284
1.04076
1.02699
1.03957
1.02538
1.03846
1.02371
1.03739
1.02139
1.03583
1.01835
1.0372
1.0117
1.04314
0.989383
1.1731
1.03834
1.05599
1.04318
1.03011
1.03063
1.02109
1.02591
1.02238
1.02537
1.02582
1.02598
1.02789
1.02576
1.02839
1.0264
1.02838
1.02663
1.02925