/*--------------------------------*- C++ -*----------------------------------*\
| =========                 |                                                 |
| \\      /  F ield         | OpenFOAM: The Open Source CFD Toolbox           |
|  \\    /   O peration     | Version:  2206                                  |
|   \\  /    A nd           | Website:  www.openfoam.com                      |
|    \\/     M anipulation  |                                                 |
\*---------------------------------------------------------------------------*/
FoamFile
{
    version     2.0;
    format      ascii;
    arch        "LSB;label=32;scalar=64";
    class       volScalarField;
    location    "180";
    object      pPrime2Mean;
}
// * * * * * * * * * * * * * * * * * * * * * * * * * * * * * * * * * * * * * //

dimensions      [2 -2 -4 0 0 0 0];

internalField   nonuniform List<scalar> 
93840
(
0.0105786
0.00350588
0.0292037
0.00114725
0.00419871
0.0327443
0.00269976
0.00347892
0.00322702
0.0308947
0.000303315
0.00620028
0.00336427
0.00428374
0.0435894
0.000151131
0.00655035
0.00461719
0.00209072
0.00484786
0.071802
0.000293959
0.00355845
0.00521717
0.00637124
0.00247828
0.0108964
0.0947746
0.000171871
0.00462658
0.00349285
0.00240328
0.00494099
0.00563972
0.011723
0.139877
0.000275574
0.00241551
0.00448278
0.00269602
0.0023334
0.00840901
0.00307808
0.0102476
0.132534
0.000223791
0.00184864
0.00268171
0.00284215
0.00452369
0.00378203
0.00719063
0.00390972
0.00977218
0.174572
0.000235801
0.00120051
0.00278605
0.00211077
0.00266643
0.00633149
0.00350796
0.0037827
0.0045136
0.0106585
0.142029
0.000197787
0.00162614
0.00222808
0.0017347
0.00393098
0.00290375
0.00604167
0.00251871
0.00308205
0.00588776
0.0102803
0.161314
0.000199599
0.00102375
0.00268197
0.00192141
0.00212302
0.00542521
0.00181123
0.00286543
0.00219751
0.00327005
0.00647434
0.0102849
0.146046
0.000227188
0.00133959
0.00251642
0.00159368
0.0030429
0.00215286
0.00468202
0.00221317
0.00203654
0.00291206
0.00258149
0.00454085
0.0100743
0.165727
0.000159067
0.000853828
0.0026927
0.00215129
0.0017751
0.00476989
0.00112189
0.00347611
0.00158104
0.00231173
0.00285273
0.00314049
0.00618651
0.0101436
0.146559
0.000206946
0.00112411
0.00262419
0.00148694
0.00254384
0.0016734
0.00359927
0.00156442
0.00200622
0.00203572
0.00187662
0.00281792
0.00282143
0.00511644
0.00980794
0.167977
0.000154679
0.000765788
0.00275614
0.00227332
0.00145819
0.00429428
0.000735313
0.0031959
0.00116298
0.00245232
0.00182266
0.0023288
0.00314564
0.00306245
0.00570183
0.00982809
0.148373
0.000245399
0.000966923
0.00279872
0.00143841
0.00211531
0.00143652
0.00284335
0.000987065
0.00195531
0.00141776
0.00162557
0.00187965
0.00180642
0.00283304
0.00285882
0.00519909
0.00945005
0.169681
0.000187131
0.000760295
0.00280288
0.0023731
0.00117573
0.00396915
0.00046198
0.00284887
0.000797055
0.00258186
0.00122533
0.00224701
0.00190717
0.00242487
0.00321522
0.00302412
0.00550361
0.00948486
0.149368
0.000294048
0.000859233
0.0029189
0.00143027
0.00188213
0.00125052
0.00230225
0.000652719
0.00175195
0.000933296
0.00161472
0.00134557
0.00140648
0.00189032
0.00185782
0.00296101
0.00270052
0.00529007
0.00907311
0.169538
0.000284124
0.000874991
0.00283635
0.00243779
0.00095601
0.00369925
0.000333465
0.0026388
0.000616244
0.00259166
0.000861551
0.00215232
0.00130159
0.00198707
0.00200441
0.00235004
0.00310213
0.00277731
0.00541619
0.00913123
0.150308
0.000341253
0.000807315
0.00280225
0.00144798
0.00156831
0.00108861
0.00185534
0.000459431
0.00138431
0.000634703
0.0013896
0.000914379
0.00133416
0.00128965
0.00136024
0.00180556
0.00170458
0.00302153
0.00247434
0.00534959
0.00872342
0.167727
0.000432156
0.00101671
0.00277406
0.00237074
0.000766339
0.00340931
0.000307507
0.00234551
0.000478767
0.00261756
0.000638974
0.00208946
0.000888097
0.00197761
0.00140562
0.00183684
0.00181402
0.00219586
0.0031278
0.0024934
0.00534937
0.00882378
0.15186
0.000359889
0.000841172
0.00271129
0.00146697
0.00139737
0.00095623
0.00152835
0.000390033
0.00104804
0.000477113
0.00107756
0.000582476
0.0010156
0.000876818
0.00122602
0.00120799
0.00127956
0.00183011
0.00154688
0.0030779
0.00227515
0.00538448
0.0083654
0.164915
0.000497303
0.00117615
0.00274832
0.00235142
0.000648471
0.0032111
0.000288912
0.00185315
0.00030746
0.00222894
0.000392097
0.00165141
0.00067208
0.00191464
0.000881675
0.00137571
0.00134544
0.00151102
0.00171204
0.00192301
0.00311785
0.00235259
0.00526654
0.00822058
0.167792
0.000355962
0.000925275
0.00258636
0.0014956
0.00126249
0.000838159
0.0013273
0.000429129
0.00085153
0.000390911
0.000718797
0.000421401
0.000709103
0.000606779
0.000914725
0.000850137
0.00107596
0.00122045
0.00125758
0.00179475
0.00150126
0.00319064
0.00215207
0.00540817
0.0073082
0.175213
0.000510083
0.00122322
0.00284727
0.00230504
0.000551635
0.00304484
0.000231001
0.00139809
0.000207299
0.00165952
0.000308249
0.00131496
0.000413339
0.00150837
0.000612385
0.00141379
0.000899183
0.00135418
0.00120376
0.00131998
0.00167961
0.00178593
0.00312755
0.0022369
0.00531345
0.00898298
0.163543
0.000359765
0.00103213
0.00242155
0.00148857
0.00114949
0.000747497
0.00120999
0.000475692
0.000770221
0.000391938
0.000696214
0.00036408
0.000606369
0.000437081
0.000710531
0.000612303
0.000903193
0.000865287
0.00101222
0.0012413
0.00129258
0.00179525
0.00143663
0.00324271
0.00195675
0.00598878
0.0081289
0.164347
0.00049095
0.00115031
0.00290548
0.00205809
0.000475596
0.00280418
0.000190284
0.00111445
0.000136058
0.00127418
0.000178205
0.00125166
0.000303668
0.00124592
0.000423582
0.00122523
0.000594135
0.0013024
0.000872183
0.00133726
0.00118106
0.00130961
0.00175162
0.00174053
0.00316033
0.00204603
0.00563576
0.00809785
0.156998
0.000383179
0.00107113
0.00219442
0.0014575
0.0010794
0.000690807
0.00109245
0.000479872
0.000660993
0.000432521
0.00065244
0.000376196
0.000617442
0.000370064
0.0006242
0.000471371
0.000717383
0.000626151
0.000896578
0.000901568
0.000986152
0.00126073
0.00121937
0.00190682
0.00146338
0.00329811
0.0018808
0.00545126
0.00739627
0.160327
0.000464504
0.00107943
0.00297165
0.00188794
0.000447684
0.00259688
0.000175898
0.000901227
0.000145423
0.000960558
0.000128587
0.00103965
0.000175934
0.00106656
0.000284753
0.00111915
0.000364403
0.00115915
0.000524363
0.00102178
0.000801014
0.00127601
0.00117194
0.00137637
0.001811
0.0016663
0.0031566
0.00200979
0.00535724
0.007733
0.154151
0.000415376
0.00105629
0.00194035
0.00143077
0.000992609
0.000639514
0.000937931
0.000424127
0.000582184
0.000425849
0.000630694
0.000417726
0.000638654
0.00036074
0.000603542
0.000344221
0.000599685
0.000486592
0.00070706
0.000606947
0.000888031
0.000904421
0.000981196
0.00130117
0.00120709
0.00194776
0.00156113
0.00327176
0.00181185
0.00549698
0.00701676
0.157726
0.000448779
0.00104997
0.00305653
0.00171947
0.000439945
0.00231682
0.000187687
0.000769256
0.00018428
0.000684418
0.000168242
0.000738961
0.00015694
0.00089175
0.000174642
0.000951832
0.00023784
0.00100833
0.000325263
0.00106866
0.000497898
0.00111459
0.000797417
0.00123478
0.00117126
0.00137464
0.00183743
0.00161132
0.00314741
0.00201434
0.00539351
0.00704251
0.152518
0.000430831
0.00117573
0.00167043
0.00145536
0.000937293
0.00060739
0.000796969
0.000375899
0.000445584
0.000415613
0.000502184
0.000379526
0.000562878
0.00033863
0.000555502
0.000310297
0.000533444
0.00031715
0.000599435
0.000459555
0.000700156
0.000603422
0.000855273
0.000903035
0.000945838
0.00130176
0.00120977
0.00199497
0.00150157
0.00329701
0.00176268
0.00532838
0.00648573
0.155838
0.000428018
0.00094401
0.00308991
0.00156885
0.000447471
0.00208233
0.000215285
0.000633139
0.000194227
0.000557462
0.00018644
0.000595374
0.000162092
0.000699144
0.000166438
0.00079422
0.000176171
0.000832301
0.000223718
0.000930824
0.000308813
0.00101907
0.000476817
0.00105935
0.000770314
0.00125928
0.00117135
0.00139232
0.00183599
0.00163384
0.00316122
0.001864
0.00533123
0.00764882
0.151068
0.000421032
0.00125834
0.00141286
0.00145115
0.000860797
0.000551235
0.000657805
0.000362853
0.000313339
0.000370682
0.000415211
0.000364656
0.000451189
0.000311174
0.000467699
0.000307284
0.000503126
0.000260869
0.000520885
0.000295742
0.000574048
0.000440575
0.000696984
0.000587594
0.00084772
0.000852735
0.000874393
0.00129859
0.00119896
0.00202431
0.00146102
0.00332113
0.00174635
0.00555198
0.00705001
0.154253
0.000416811
0.000838423
0.00312591
0.00140585
0.000485879
0.00186293
0.00023047
0.00049285
0.000221018
0.000458352
0.000250578
0.000474024
0.000187895
0.000519037
0.000150256
0.000578544
0.000138594
0.000618541
0.000183624
0.000735565
0.000227929
0.000822014
0.000307568
0.000873424
0.000470022
0.00100841
0.000714189
0.00126216
0.00116375
0.00136123
0.00182993
0.00162179
0.00317495
0.00187723
0.00546156
0.00698339
0.149412
0.000404688
0.00139178
0.00120264
0.00147768
0.000767172
0.000505362
0.000530393
0.000362524
0.000237892
0.000401421
0.000304561
0.000365832
0.000357118
0.000314772
0.00036541
0.00026294
0.00038433
0.000215728
0.0004666
0.000245178
0.000488165
0.000276405
0.000582224
0.000400845
0.000731874
0.000551411
0.000812522
0.000850903
0.000953085
0.00126246
0.00117504
0.00203008
0.00143475
0.00332427
0.00170096
0.00535216
0.00647783
0.152462
0.000429033
0.00074154
0.00315855
0.00122079
0.000557324
0.00162094
0.000241015
0.000384431
0.000260918
0.000380384
0.000292527
0.000403875
0.000225476
0.000403847
0.000187448
0.000446966
0.000134083
0.000450603
0.000148718
0.000484429
0.000180428
0.00066499
0.000216677
0.000788332
0.000310634
0.000850981
0.000450539
0.000997296
0.00071818
0.0012391
0.00111739
0.00137945
0.00185575
0.00163339
0.00315629
0.00179465
0.00529472
0.00644902
0.148015
0.000395942
0.00153969
0.00103041
0.00150956
0.000680772
0.000487078
0.000419597
0.00036772
0.000208726
0.000411496
0.000275349
0.000351301
0.000263431
0.000328489
0.000329842
0.000294498
0.000312632
0.000255122
0.000329093
0.00019173
0.000413876
0.000203594
0.000470093
0.000270345
0.000569341
0.000393435
0.000695097
0.00054902
0.000806091
0.000844691
0.000939088
0.00130119
0.00117172
0.00206538
0.00144174
0.00332187
0.00162167
0.00531517
0.00708318
0.150853
0.000448811
0.000670333
0.00318181
0.00107545
0.000646065
0.0013819
0.000239074
0.000327768
0.000261352
0.000349441
0.000295939
0.000332815
0.000266758
0.000355808
0.000206596
0.000327266
0.000168679
0.000388031
0.000128649
0.000356539
0.000144146
0.000456165
0.000150277
0.000627765
0.000203329
0.00072603
0.000312298
0.000813756
0.000447201
0.000990132
0.000701979
0.00123345
0.00111664
0.00138187
0.00189002
0.00165495
0.00316705
0.00180593
0.0056241
0.00700513
0.146356
0.000382778
0.00168215
0.000871444
0.00151895
0.0005866
0.000464763
0.000323688
0.000376204
0.000208659
0.000398936
0.000224312
0.000334329
0.000185973
0.000371126
0.000248224
0.000290502
0.000306588
0.000274941
0.00027834
0.000236383
0.000308572
0.000190971
0.000392689
0.000200464
0.00043524
0.000258024
0.000539141
0.000359223
0.000671003
0.000535262
0.000817774
0.000849915
0.000937066
0.00130687
0.00119841
0.00207207
0.00144619
0.00331487
0.00170631
0.00551926
0.00641368
0.149252
0.000486804
0.000598607
0.00319114
0.000940741
0.000736246
0.00120609
0.000229109
0.000296187
0.000259032
0.000278482
0.000295227
0.000247692
0.000281464
0.000263167
0.000205124
0.000302729
0.000163533
0.000270685
0.000156396
0.000326655
0.000122092
0.000340387
0.000141112
0.000410214
0.000143262
0.000547354
0.00020329
0.000682157
0.000317613
0.000781229
0.000448403
0.000964166
0.000698062
0.00122706
0.00112466
0.00140481
0.00191626
0.00169693
0.00316873
0.00187131
0.00538545
0.00636558
0.144126
0.000355131
0.0017987
0.000727035
0.001515
0.000489163
0.000474369
0.000254476
0.000365263
0.000207554
0.000416788
0.000191024
0.000360416
0.000172786
0.000304267
0.000176428
0.000336274
0.000227894
0.000280955
0.000251478
0.000261113
0.000263001
0.000234099
0.000291188
0.000191471
0.000363382
0.000186106
0.000437933
0.000249593
0.00052515
0.000344276
0.000664171
0.00053561
0.000818553
0.000832477
0.000955597
0.00130264
0.0012041
0.0020609
0.0014611
0.00329536
0.0016456
0.0052911
0.00589634
0.146691
0.000521866
0.00054012
0.00317448
0.000776812
0.000812625
0.00103446
0.000219071
0.000266108
0.000280973
0.000221772
0.000303265
0.00021157
0.000277704
0.000178996
0.000248537
0.000231122
0.00019934
0.000239782
0.000134881
0.000220846
0.000151039
0.000276499
0.00011985
0.000309513
0.000134636
0.000368165
0.000135991
0.000492542
0.000209116
0.000626979
0.000324313
0.000756728
0.00045477
0.000949142
0.000684736
0.00121366
0.00112595
0.00143715
0.00191754
0.00174743
0.00318154
0.00185292
0.00520373
0.00586372
0.14178
0.000331399
0.00190042
0.000600498
0.00150226
0.000419864
0.000503895
0.000210435
0.000346947
0.000216692
0.000411997
0.000208271
0.000380467
0.000158861
0.000313718
0.00014665
0.000302605
0.000159413
0.000293751
0.000187532
0.000264656
0.000222589
0.000238862
0.000243705
0.000222635
0.000278689
0.000182727
0.000350132
0.000191163
0.000443297
0.000245901
0.000535376
0.000325749
0.000663147
0.000545637
0.000823634
0.000854199
0.000974349
0.00129939
0.00121646
0.00205114
0.00148579
0.00330073
0.00164355
0.00524415
0.00634691
0.144461
0.000559984
0.000461358
0.00310823
0.000646912
0.000869748
0.000871947
0.000222412
0.000242566
0.000293514
0.000172424
0.000335113
0.000189964
0.000275474
0.00019016
0.000235892
0.000148332
0.000284055
0.00019369
0.000191511
0.000198022
0.000136452
0.000205004
0.000147365
0.000245712
0.000120212
0.000288589
0.000137006
0.00035596
0.000139042
0.000444663
0.00021112
0.000605454
0.000302524
0.000741809
0.000465906
0.000919594
0.000690733
0.00119536
0.00112483
0.00143208
0.00192952
0.00177848
0.00319379
0.00189417
0.00550901
0.00629619
0.139688
0.000314212
0.00197923
0.000523549
0.00148706
0.000373555
0.000526263
0.000180297
0.000334936
0.000230139
0.000376401
0.000192572
0.000347306
0.000146834
0.000331426
0.000117802
0.000289812
0.000128485
0.000275624
0.000152472
0.00025472
0.000171286
0.000257973
0.000203716
0.000234244
0.000218351
0.000213479
0.000272869
0.00016958
0.00034267
0.000172498
0.000429962
0.000248063
0.000550369
0.000358018
0.000663035
0.000545189
0.000814013
0.000840706
0.000997094
0.00129799
0.00124088
0.00204501
0.00152002
0.00329999
0.0017429
0.00544321
0.00585972
0.142409
0.000600547
0.000390719
0.00306268
0.000537424
0.000915426
0.000731531
0.00023145
0.00021105
0.000286135
0.000144958
0.000302874
0.000148628
0.000236003
0.000152495
0.0002415
0.00014311
0.000210115
0.000133786
0.000216418
0.000163788
0.000183512
0.000166358
0.000137973
0.000190824
0.000158729
0.000229198
0.000128972
0.000272912
0.000122338
0.000327018
0.000140294
0.000468986
0.000216418
0.000586039
0.00031094
0.000725864
0.000467416
0.000923265
0.000699396
0.00118711
0.00112506
0.00142968
0.00190033
0.00171704
0.00318854
0.00193761
0.00539243
0.00586195
0.137769
0.000303497
0.0020239
0.000460925
0.00144782
0.000337102
0.000530455
0.000164795
0.000342057
0.000238712
0.000356409
0.000187767
0.000320773
0.000145472
0.000296369
0.000132841
0.000275038
0.00010863
0.000276704
0.000120684
0.000250637
0.000150215
0.00022201
0.00015328
0.000239387
0.000172096
0.000235924
0.000203793
0.000209535
0.000266259
0.000165765
0.000321098
0.00014867
0.000410557
0.000245029
0.000547285
0.000364023
0.000675794
0.000557853
0.000820862
0.000837247
0.00100368
0.00129301
0.00126577
0.00199913
0.00154933
0.0032974
0.00176687
0.00533782
0.00550963
0.14039
0.000642391
0.000348874
0.00298704
0.000439605
0.000949812
0.000630276
0.000243678
0.00017552
0.000263865
0.000144278
0.000307911
0.000123583
0.000236658
0.000124052
0.000226266
0.000101222
0.00019371
0.000129543
0.000185417
0.000127048
0.000187343
0.000135349
0.000161587
0.000149938
0.000137812
0.000170023
0.000150775
0.000218531
0.00013461
0.000251013
0.000126954
0.000324296
0.000121161
0.000439059
0.00022523
0.000568033
0.000318034
0.000715079
0.00046929
0.000898858
0.000699598
0.0011918
0.00112945
0.00141671
0.00184583
0.00170593
0.00320563
0.00196372
0.00539778
0.00623746
0.135634
0.000301795
0.00202217
0.000398317
0.00140542
0.000306447
0.000529539
0.00016515
0.000348683
0.000245414
0.000349119
0.000194475
0.000293214
0.000151291
0.000268316
0.00013294
0.000264442
0.000126011
0.000268131
0.000100008
0.000273096
0.000120128
0.000222288
0.000133112
0.000212285
0.000131164
0.000226802
0.000176812
0.000223432
0.000197222
0.000189533
0.000262636
0.000161513
0.000301579
0.000148655
0.000411939
0.000233563
0.000543447
0.000360783
0.00067797
0.000570182
0.00081468
0.000796417
0.00100348
0.00128677
0.00124492
0.00194564
0.00153916
0.00329987
0.00180137
0.00557697
0.00578523
0.138253
0.000688207
0.000309554
0.00287536
0.000376703
0.000967066
0.0005617
0.000243877
0.000141062
0.000237157
0.000152681
0.000295925
0.000140558
0.000252212
9.82074e-05
0.000239014
0.000109743
0.000198965
9.93192e-05
0.000180358
0.000111166
0.000172447
0.000113452
0.000169614
0.000109475
0.000149355
0.000139565
0.000133554
0.000157482
0.000149906
0.000200667
0.000142349
0.000234857
0.000129473
0.000320848
0.000138581
0.00042499
0.000232957
0.00054809
0.000332743
0.000709695
0.000472623
0.000909475
0.000657665
0.00118518
0.00110048
0.00136152
0.00179805
0.0017281
0.0031999
0.00206821
0.00545061
0.00567417
0.133518
0.000292723
0.00197651
0.000364016
0.00136356
0.000285665
0.000532173
0.000182348
0.000349888
0.0002508
0.000338561
0.0002042
0.000295952
0.000158174
0.000262288
0.000127989
0.000246023
0.000107549
0.000243985
0.000115862
0.000249376
0.000100691
0.000249431
0.000120519
0.000193057
0.000134094
0.000199102
0.000140903
0.000217623
0.000161691
0.000203456
0.000196939
0.000179081
0.000261012
0.000159156
0.000307496
0.000157734
0.000417087
0.000234832
0.000547797
0.000366574
0.000689844
0.000571581
0.000819931
0.000833173
0.000995613
0.00120223
0.00122828
0.00195243
0.00155471
0.00330344
0.00183482
0.00535536
0.00535138
0.136217
0.000729153
0.000277678
0.00275755
0.000322161
0.000970308
0.000510446
0.000235997
0.000123074
0.000215818
0.000149656
0.000260669
0.000136546
0.000213724
0.000103187
0.000233111
9.43151e-05
0.000205232
0.000100588
0.00018538
9.02439e-05
0.000176605
0.000108899
0.000170767
0.000103209
0.000142203
0.00010039
0.000140424
0.00012908
0.000130561
0.000146259
0.000147033
0.00018924
0.000143986
0.000233057
0.000133006
0.00031513
0.000143538
0.00041484
0.00023416
0.000539855
0.000343392
0.000683118
0.000476046
0.000906661
0.000672526
0.00117972
0.00103169
0.00136335
0.00179646
0.00174266
0.00320629
0.00202964
0.00531303
0.00544166
0.131415
0.000275082
0.00188686
0.000337694
0.00125719
0.000273291
0.00053256
0.000201095
0.000346889
0.000263183
0.000331981
0.000206512
0.00029332
0.000163244
0.000263008
0.000136483
0.000237002
0.000106978
0.000231906
0.000102288
0.000210074
0.000110126
0.000216499
0.00010619
0.000220784
0.000122834
0.0001939
0.000124098
0.000182272
0.000136246
0.000204056
0.000154801
0.000195793
0.000191018
0.000176094
0.000257778
0.000161319
0.000311071
0.000160374
0.000420342
0.00023005
0.000547708
0.000374224
0.000687558
0.000569759
0.000823752
0.000822822
0.000988733
0.0012379
0.00122634
0.00195241
0.00157943
0.00330689
0.00180551
0.00534929
0.00514276
0.133945
0.000744755
0.000251694
0.00260141
0.000300631
0.0009619
0.000460245
0.000231609
0.000120768
0.000198165
0.000147667
0.000245937
0.000123774
0.000191668
9.62856e-05
0.000199022
9.90619e-05
0.00017458
8.30698e-05
0.000189242
8.40026e-05
0.00016604
7.98741e-05
0.000164159
0.00010095
0.000179379
9.49717e-05
0.00013956
0.000103176
0.000137638
0.000122078
0.000136452
0.000142548
0.000147517
0.000184302
0.000148845
0.000239226
0.00014017
0.000310175
0.000157491
0.000405067
0.000245051
0.000531509
0.000352168
0.000686441
0.000490868
0.000898919
0.000674135
0.00115421
0.0010325
0.00136616
0.0017966
0.00176743
0.0032014
0.00202685
0.00529133
0.00514861
0.129157
0.000252509
0.00181647
0.000332589
0.0012394
0.000268237
0.000532014
0.000220273
0.000348413
0.000274856
0.000318824
0.000215904
0.000314945
0.000168024
0.000234178
0.000143357
0.000219912
0.000111229
0.000226433
9.56244e-05
0.000217652
9.43941e-05
0.000173671
0.000100534
0.000212651
0.000105632
0.000166877
0.00011718
0.000180438
0.000118927
0.000177326
0.000138884
0.000187374
0.000144985
0.000186358
0.000193967
0.000176464
0.000263092
0.000160737
0.000318938
0.000165034
0.000431314
0.000233365
0.000553975
0.000383136
0.000691181
0.000570902
0.00082868
0.000828421
0.000993766
0.00124419
0.00122908
0.00194131
0.00159749
0.00328438
0.00186388
0.00531738
0.0048607
0.131641
0.000754544
0.000240785
0.00250999
0.000281734
0.000943087
0.000413177
0.000232275
0.000123063
0.000185646
0.000160296
0.0002236
0.000127597
0.000209723
0.000108376
0.000170954
9.09607e-05
0.000173351
8.05305e-05
0.000166738
7.25278e-05
0.000183846
7.86778e-05
0.000169226
6.7195e-05
0.000166279
9.23977e-05
0.000173204
8.86566e-05
0.000138463
0.000101803
0.000134768
0.000113095
0.00013987
0.00015085
0.000149582
0.000185196
0.000156649
0.000236729
0.000146917
0.000308763
0.00016185
0.000398105
0.000251299
0.00053057
0.000364233
0.000685118
0.000491914
0.000895773
0.000689889
0.0010894
0.00104408
0.00136966
0.00181137
0.00178574
0.00320746
0.0020247
0.00530621
0.00519601
0.126778
0.000243787
0.00172129
0.000335844
0.00121806
0.000265013
0.000532282
0.000243149
0.00036046
0.000293799
0.000297088
0.000217967
0.000303997
0.000174954
0.000239639
0.000133151
0.000209556
0.000134496
0.00021059
0.00010002
0.000202196
9.46819e-05
0.000197958
8.58444e-05
0.000171859
9.22115e-05
0.000183847
0.000101207
0.000165453
0.000109427
0.000173046
0.000116919
0.000164178
0.000136406
0.000182259
0.000141318
0.000182845
0.000201344
0.000179448
0.000267125
0.000173087
0.000327129
0.000171902
0.000435995
0.000239188
0.000553453
0.000396616
0.00069648
0.000585946
0.000828771
0.000827869
0.00104218
0.00125297
0.00121687
0.00193974
0.00160916
0.0032886
0.00187296
0.00542618
0.0049518
0.129249
0.000765971
0.000225521
0.00234569
0.000265385
0.000922502
0.00036707
0.000234641
0.000129397
0.000180788
0.000178369
0.000222581
0.000133896
0.00019734
0.000113132
0.000158398
8.86996e-05
0.000174632
8.56151e-05
0.000158355
7.26732e-05
0.000163722
6.88923e-05
0.000174913
6.76101e-05
0.000164947
7.14057e-05
0.000168282
8.8557e-05
0.000159536
8.98143e-05
0.000135628
0.000100731
0.000135029
0.000109359
0.000139151
0.000151612
0.000149462
0.000186163
0.000163885
0.000237997
0.000154341
0.000314258
0.000167612
0.000400677
0.000259731
0.00053113
0.000369444
0.000683207
0.000502305
0.00089375
0.000706292
0.00108884
0.00106396
0.00137089
0.00182717
0.00181036
0.00320671
0.00206909
0.00544451
0.00506639
0.124496
0.000232339
0.00160116
0.000341788
0.00120275
0.000264179
0.000535921
0.000264082
0.000369224
0.000318827
0.000284382
0.000229646
0.000280824
0.000176333
0.000261027
0.00012952
0.000219986
0.000128444
0.000206151
0.000117593
0.000195338
9.98304e-05
0.000198508
8.94347e-05
0.000186511
8.22934e-05
0.000170988
9.27822e-05
0.000176036
9.6727e-05
0.000163901
0.000109013
0.00016759
0.000116225
0.000159106
0.000134552
0.000173032
0.000139257
0.000178547
0.000203194
0.000181013
0.000260417
0.000179816
0.000336506
0.000172235
0.000439814
0.000249585
0.000557363
0.00040312
0.000703598
0.00059366
0.000828594
0.000834428
0.00103116
0.00125222
0.00122546
0.00194775
0.00163385
0.00327067
0.00189471
0.00548965
0.0047694
0.126807
0.000775568
0.000205444
0.00229964
0.000249361
0.000902784
0.000323507
0.000230994
0.000141325
0.000185783
0.000199953
0.00019861
0.000150547
0.000184185
0.000119531
0.000153327
0.000104589
0.000160795
8.29356e-05
0.000163216
7.86554e-05
0.000157333
6.91015e-05
0.00016078
6.53719e-05
0.000169368
6.10719e-05
0.000158774
6.51178e-05
0.000163751
8.12114e-05
0.000159519
8.73577e-05
0.000136538
9.65526e-05
0.000132964
0.000107486
0.000138033
0.000155118
0.000149879
0.000186222
0.00016926
0.000248624
0.000157604
0.000321144
0.000182417
0.000404255
0.000269259
0.000528061
0.000373238
0.000670284
0.000513978
0.000881045
0.000720887
0.00109333
0.00107557
0.00137172
0.00183665
0.0018149
0.00320076
0.00210228
0.00545501
0.00476143
0.122232
0.000220298
0.00148473
0.000333092
0.00119587
0.000255896
0.000539827
0.000279534
0.000362299
0.000344721
0.000262812
0.000249093
0.000267812
0.000191742
0.000253119
0.000147795
0.000233214
0.000109436
0.000215287
0.000118785
0.000196588
0.000106225
0.00018654
9.35892e-05
0.000184437
8.49018e-05
0.000180788
7.749e-05
0.000167132
8.82053e-05
0.000171678
9.74245e-05
0.000164002
0.000107517
0.000162779
0.000115959
0.000155564
0.000133564
0.000167767
0.000140784
0.00017159
0.000206087
0.000184858
0.0002692
0.000182512
0.000341843
0.00017704
0.000447155
0.000259216
0.000561149
0.000403664
0.00068908
0.000601228
0.000830831
0.000843975
0.00102965
0.00125784
0.00123489
0.00195075
0.00162749
0.00328024
0.00190132
0.0054592
0.00486538
0.124343
0.000782948
0.000196783
0.00226396
0.000232349
0.000883994
0.000283626
0.000224057
0.000154126
0.000194648
0.000222446
0.000195409
0.000186064
0.000164566
0.00013385
0.000141303
0.000102767
0.00014337
8.99032e-05
0.000145252
7.9692e-05
0.0001515
7.22966e-05
0.000154836
7.22311e-05
0.000155774
6.42097e-05
0.000150173
5.69181e-05
0.000157241
6.48304e-05
0.00016326
7.86129e-05
0.000155154
8.30688e-05
0.000135911
9.47838e-05
0.000129718
0.00010703
0.000131418
0.000161276
0.000151731
0.000191351
0.000172533
0.000259926
0.000164856
0.000332808
0.000191149
0.00040377
0.000266558
0.000534361
0.000377732
0.00069968
0.000527712
0.000885715
0.000739121
0.0010944
0.0010895
0.00137862
0.00183008
0.00175793
0.00320398
0.002117
0.00561855
0.00492215
0.119966
0.000205836
0.00142298
0.000322163
0.00119216
0.000244224
0.00054381
0.000290516
0.000342005
0.000371403
0.00024437
0.000252286
0.00025615
0.000197289
0.000221507
0.000147047
0.000220826
0.000133093
0.000195703
0.000109889
0.000194543
0.000116879
0.000194608
8.99352e-05
0.000187542
9.53512e-05
0.000187571
8.04586e-05
0.00018044
7.50968e-05
0.000165502
8.4026e-05
0.00017032
9.62107e-05
0.000164479
0.000106301
0.00015768
0.000115605
0.000148905
0.000133426
0.0001634
0.00014451
0.000167586
0.000210946
0.000186444
0.000273881
0.000183562
0.000352769
0.000182844
0.000452644
0.000264523
0.000574423
0.000402146
0.000693297
0.000605682
0.000826053
0.000853766
0.00103508
0.00125918
0.00123759
0.00193047
0.00168994
0.00329323
0.00191515
0.00562966
0.00464541
0.121853
0.00078686
0.000186489
0.00221089
0.00021776
0.000874689
0.000252786
0.000219707
0.000164705
0.000199113
0.000231841
0.000198812
0.000191749
0.000153128
0.000132024
0.000154403
0.000114653
0.00012822
9.96727e-05
0.000142579
7.66083e-05
0.000132489
7.28482e-05
0.00013817
7.04629e-05
0.000149047
6.4832e-05
0.000152258
6.11995e-05
0.00014901
5.52652e-05
0.000157279
6.4175e-05
0.000160476
7.23298e-05
0.000153997
8.52457e-05
0.000136013
9.70137e-05
0.000131536
0.000107949
0.000130283
0.000161543
0.000150887
0.00019859
0.000177121
0.000270692
0.000172653
0.000338851
0.000197195
0.000415863
0.000255902
0.000539339
0.000379409
0.000706929
0.000542187
0.000887447
0.000754452
0.00109621
0.00110368
0.00138485
0.00181591
0.00172933
0.00322299
0.0021435
0.00564171
0.00469634
0.117533
0.000187557
0.00136771
0.000318303
0.00118263
0.000238738
0.000549981
0.000298744
0.000321369
0.0003958
0.000230699
0.000250018
0.000243491
0.000203219
0.000190669
0.000178553
0.00018855
0.000132201
0.000193689
0.000110048
0.000173972
0.000117202
0.000179647
0.000108585
0.000195162
8.96074e-05
0.000182261
9.21986e-05
0.000183089
7.63952e-05
0.000175859
7.37769e-05
0.000168391
8.00763e-05
0.000167604
9.37603e-05
0.000164298
0.000102186
0.000152447
0.000113016
0.000150482
0.000130514
0.000158883
0.000149545
0.000167994
0.000216693
0.000189834
0.000280118
0.000185798
0.000353568
0.000188386
0.000456372
0.00024811
0.000586187
0.000398022
0.000701067
0.00060882
0.000830187
0.000867805
0.00104197
0.00126012
0.0012446
0.00188678
0.00167223
0.00330216
0.00191558
0.00562141
0.0044202
0.119153
0.000779315
0.000184984
0.00215067
0.000213651
0.000860433
0.000234635
0.000220083
0.000173573
0.000193
0.000233802
0.000202255
0.000196888
0.000150355
0.000145393
0.00014586
0.00011844
0.000135229
0.000112327
0.000116123
9.55902e-05
0.000144848
7.65236e-05
0.000137208
6.85957e-05
0.000133474
7.20711e-05
0.000147233
6.47092e-05
0.000152227
5.97737e-05
0.000148906
5.51267e-05
0.000154625
6.25162e-05
0.000157819
7.0178e-05
0.000152955
8.55328e-05
0.000133128
9.61878e-05
0.000127231
0.000110304
0.000129038
0.000162273
0.000150239
0.000205178
0.000178426
0.000280978
0.000178533
0.00035139
0.000204136
0.000425994
0.000271089
0.000548184
0.000382809
0.000707635
0.000556661
0.00088871
0.000773968
0.00110228
0.00111487
0.00139104
0.00175375
0.00172284
0.00320976
0.00214429
0.00558246
0.00446627
0.115035
0.000170998
0.0013119
0.000333217
0.00117132
0.000240704
0.000558134
0.000305012
0.000303668
0.00041861
0.000225632
0.000259399
0.000230314
0.000218084
0.000198705
0.000177106
0.000181874
0.000152758
0.000165628
0.000112729
0.000176886
0.000107456
0.00015558
0.00010953
0.000168962
0.000104651
0.000189463
8.62417e-05
0.000181667
8.6239e-05
0.000178902
7.15563e-05
0.000176253
7.06011e-05
0.000166204
7.8522e-05
0.000164991
9.10817e-05
0.00015871
0.000101249
0.000144004
0.00011017
0.000140277
0.000130863
0.000155332
0.000153188
0.00017123
0.000221963
0.000189885
0.000289334
0.000188915
0.000368736
0.000195774
0.000465969
0.000245354
0.00059251
0.000394115
0.000713946
0.000612319
0.000840933
0.00088282
0.00104904
0.00126108
0.0012524
0.00185425
0.00165664
0.00330375
0.0019426
0.00555506
0.0041913
0.116586
0.000766444
0.000189442
0.00210789
0.00021879
0.000843274
0.000226248
0.000220346
0.000181963
0.000181434
0.000233456
0.000191706
0.000204744
0.000162094
0.000173991
0.000145168
0.000134951
0.000101721
0.000106894
0.000100075
0.00011082
0.000110958
8.74316e-05
0.00012384
7.25645e-05
0.000127879
7.07941e-05
0.000135059
6.75244e-05
0.000145128
6.63232e-05
0.000152518
5.91681e-05
0.000150511
5.49541e-05
0.000155324
6.41004e-05
0.000156684
6.87988e-05
0.000151288
8.28158e-05
0.000128689
9.50923e-05
0.000119889