/*--------------------------------*- C++ -*----------------------------------*\
| =========                 |                                                 |
| \\      /  F ield         | OpenFOAM: The Open Source CFD Toolbox           |
|  \\    /   O peration     | Version:  2206                                  |
|   \\  /    A nd           | Website:  www.openfoam.com                      |
|    \\/     M anipulation  |                                                 |
\*---------------------------------------------------------------------------*/
FoamFile
{
    version     2.0;
    format      ascii;
    arch        "LSB;label=32;scalar=64";
    class       volScalarField;
    location    "180";
    object      rho;
}
// * * * * * * * * * * * * * * * * * * * * * * * * * * * * * * * * * * * * * //

dimensions      [1 -3 0 0 0 0 0];

internalField   nonuniform List<scalar> 
93840
(
2.39161
0.53681
2.3648
1.35661
0.566042
2.15025
0.679705
1.11841
0.666714
1.88085
1.18161
0.930566
1.10557
0.783438
1.78813
0.990902
1.08526
0.895477
1.19227
0.812105
1.7285
1.08505
0.986238
1.07988
0.772329
1.11461
0.781622
1.76553
0.971618
1.08548
0.976906
1.08756
0.814185
1.14187
0.817873
1.77318
1.08333
0.980227
1.09246
0.967794
1.05617
0.879412
1.05588
0.7993
1.78649
0.979879
1.09811
0.976948
1.05872
0.97403
1.03202
0.934496
1.0372
0.809559
1.79207
1.07834
1.00204
1.09149
0.983693
1.03428
0.977379
0.998176
0.956402
1.03528
0.799486
1.79827
0.978866
1.08449
0.995344
1.06028
0.983224
1.02102
0.976594
1.017
0.952848
1.02668
0.807198
1.79794
1.06787
0.995255
1.08045
1.00067
1.05116
0.999521
1.03396
0.970605
1.00374
0.957467
1.02703
0.800015
1.79961
0.970503
1.06872
0.994279
1.05055
1.00874
1.03195
0.989532
1.01594
0.978794
1.01595
0.958882
1.02456
0.806895
1.79911
1.07145
0.984123
1.07492
0.994321
1.05
0.981187
1.02969
0.975781
1.04742
0.969324
1.01648
0.961231
1.02345
0.800474
1.79952
0.973837
1.07278
0.993083
1.04601
0.994764
1.02568
1.00248
1.0547
0.992297
1.01176
0.963577
1.02385
0.964011
1.02151
0.806648
1.79872
1.07732
0.990752
1.08133
0.984041
1.04607
0.975816
1.02969
0.958397
1.03752
0.982475
1.04232
0.96738
1.01608
0.960813
1.02074
0.801586
1.7989
0.982709
1.07632
1.00291
1.04807
0.987263
1.0104
0.996928
1.04451
0.988464
1.02392
0.97654
1.02543
0.977439
1.01595
0.962779
1.02015
0.80754
1.79797
1.06825
0.997967
1.06571
0.990134
1.04736
0.995538
1.02479
0.964107
1.03324
0.986518
1.03142
0.977382
1.04361
0.980761
1.01431
0.961202
1.02071
0.803207
1.79788
0.980388
1.06056
1.00001
1.04523
1.00231
1.01444
0.983341
1.03677
0.984933
1.0298
0.972607
1.03032
0.990499
1.0321
0.97616
1.00389
0.96354
1.02074
0.809098
1.79664
1.0681
0.990079
1.06977
1.00701
1.04212
0.98274
1.02358
0.972465
1.05666
0.987835
1.01912
0.983396
1.04438
0.984352
1.00941
0.991621
1.00737
0.962857
1.02177
0.805434
1.7959
0.978816
1.07377
1.0019
1.04887
1.00704
1.0254
0.989081
1.03859
0.962638
1.03205
0.980093
1.03274
0.981173
1.02656
1.00001
1.02668
0.98168
1.0044
0.965754
1.02199
0.81098
1.79482
1.07708
0.997071
1.08094
1.01878
1.04818
0.988522
1.01943
0.950795
1.03622
0.99275
1.03979
0.975201
1.02467
0.989996
1.02289
0.992597
1.02833
0.975023
1.0124
0.96476
1.02285
0.808217
1.79414
0.986673
1.07922
1.02808
1.05954
0.988484
1.02068
0.986612
1.05437
0.978199
1.02663
0.970192
1.02981
0.985635
1.03606
0.991544
1.02628
0.984862
1.02998
0.980116
1.00726
0.967052
1.02292
0.81331
1.79303
1.07921
1.00121
1.07374
0.998753
1.05284
1.0084
1.03669
0.952045
1.04016
0.985621
1.02942
0.971661
1.03462
0.983869
1.02488
0.978773
1.03462
0.981405
1.03007
0.981493
1.01206
0.965411
1.02365
0.810995
1.79241
0.992807
1.0756
1.01611
1.06576
1.00222
1.0189
0.978508
1.04751
0.999844
1.05387
0.996966
1.03758
0.977837
1.03037
0.985598
1.03947
0.989826
1.03104
0.978202
1.02661
0.98557
1.00481
0.966329
1.02399
0.815937
1.79124
1.0689
0.994494
1.06843
0.998248
1.04821
1.01038
1.04579
0.970709
1.04238
0.981219
1.03022
0.985965
1.04058
0.988411
1.03937
0.989526
1.02739
0.987346
1.03725
0.988618
1.02352
0.990446
0.999753
0.962743
1.02491
0.813966
1.79023
0.990575
1.0791
0.999905
1.06496
1.01185
1.01864
0.975293
1.0343
0.999319
1.03245
0.997762
1.03914
0.989869
1.03703
0.990374
1.03177
0.990001
1.03019
0.989497
1.02784
0.993907
1.02169
0.991211
1.00613
0.965025
1.02556
0.819168
1.78889
1.06211
0.996916
1.07721
1.00801
1.04013
1.00731
1.04968
0.985185
1.03417
0.980947
1.03581
0.986982
1.03087
0.981732
1.03714
0.9934
1.03108
0.995271
1.02346
0.987414
1.03656
1.00297
1.01491
0.990454
0.999042
0.962351
1.02699
0.818075
1.78777
0.980123
1.0705
1.00341
1.06028
1.0168
1.02664
0.975513
1.01606
0.990086
1.02978
0.995751
1.03153
0.994923
1.03816
0.991825
1.03376
0.992568
1.02766
0.988274
1.03032
0.996256
1.0279
0.999844
1.02042
0.982523
1.00547
0.965332
1.02808
0.823203
1.78621
1.06924
0.991941
1.08164
1.00837
1.03872
1.00154
1.04592
0.9834
1.03945
0.989233
1.03505
0.986363
1.03326
0.992901
1.02603
0.978785
1.03523
0.996039
1.02596
0.990998
1.02709
0.991183
1.02872
1.00188
1.01572
0.986991
1.00317
0.965906
1.02945
0.821678
1.78457
0.980714
1.07115
0.999745
1.05713
1.01616
1.02754
0.973696
1.0082
0.983112
1.01844
0.995468
1.02466
0.98596
1.03909
0.99664
1.03315
0.991254
1.02593
0.988501
1.02335
0.989107
1.03083
1.00248
1.02589
0.998075
1.01574
0.981492
1.01021
0.967364
1.03038
0.827128
1.7826
1.06442
0.992109
1.0884
1.00638
1.04013
0.994313
1.04027
0.980994
1.04223
0.988679
1.03719
0.981958
1.02865
0.964762
1.03314
0.982543
1.03214
0.989973
1.03492
0.996222
1.02636
0.989045
1.028
0.991005
1.0262
0.997048
1.02434
0.982735
1.00877
0.964294
1.03146
0.826427
1.78079
0.975721
1.06789
1.01434
1.05827
1.01265
1.02605
0.970019
1.01571
0.973732
1.02274
0.982939
1.02006
0.988559
1.03784
1.00169
1.03722
0.989447
1.02682
0.989243
1.02876
0.986
1.02499
0.985001
1.02385
0.996932
1.02929
0.99553
1.03113
0.984557
1.00915
0.967594
1.03209
0.831909
1.77901
1.06803
0.990493
1.08436
0.994506
1.03645
0.990559
1.03976
0.966097
1.04106
0.992652
1.04108
0.994809
1.03593
0.965855
1.03342
0.995826
1.0378
0.993778
1.02923
0.982629
1.02837
0.98948
1.02616
0.986044
1.02898
0.989527
1.02832
0.995765
1.03132
0.979466
1.01661
0.96398
1.03559
0.815544
1.77735
0.981148
1.06952
1.01731
1.05549
1.01714
1.02964
0.969883
1.02294
0.986432
1.02981
0.975855
1.02646
0.993715
1.0233
1.00621
1.02707
0.990463
1.03649
0.985775
1.03704
0.991987
1.02784
0.986393
1.02859
0.98648
1.02974
0.993479
1.02817
0.991211
1.03228
0.980395
1.0191
0.967508
1.05088
0.820686
1.77522
1.06697
0.995366
1.07907
1.00248
1.03967
0.984245
1.0417
0.966824
1.03421
0.98834
1.03626
0.997601
1.03618
0.989505
1.04246
0.992865
1.03322
0.992631
1.04293
0.988491
1.03233
0.985964
1.02664
0.983612
1.02771
0.985932
1.0379
0.986792
1.02665
0.990591
1.03116
0.969311
1.02553
0.956113
1.04842
0.824149
1.77297
0.983416
1.06649
1.01842
1.05966
1.019
1.03357
0.969476
1.02806
0.998081
1.03072
0.978278
1.03808
0.97923
1.02337
0.993041
1.02279
0.994889
1.03505
0.990176
1.04106
0.989883
1.03166
0.986302
1.03107
0.983498
1.03307
0.987302
1.03334
0.994303
1.03031
0.990562
1.03296
0.976676
1.02498
0.96209
1.04583
0.828372
1.77084
1.06936
0.995862
1.06968
1.01074
1.04496
0.979244
1.05083
0.976257
1.02539
0.987075
1.02999
0.995528
1.03727
0.99874
1.03988
0.99384
1.02694
0.982589
1.03516
0.991049
1.03997
0.993425
1.03324
0.9801
1.02643
0.983227
1.03211
0.985979
1.03709
0.98802
1.03024
0.987616
1.03609
0.967952
1.03186
0.962575
1.04468
0.830296
1.7689
0.997437
1.06748
1.00807
1.05924
1.02554
1.03786
0.978532
1.02783
1.00012
1.03104
1.00335
1.03463
0.985839
1.03271
0.975141
1.02111
0.996956
1.03057
0.998325
1.03554
0.992283
1.0401
0.988217
1.03214
0.988975
1.03406
0.987361
1.03632
0.981329
1.02636
0.989215
1.03476
0.988645
1.03875
0.981669
1.02893
0.96847
1.04672
0.818134
1.76692
1.06255
0.995378
1.08066
1.02323
1.05368
0.976595
1.0579
0.995167
1.02724
0.987287
1.02721
0.97852
1.02576
0.994233
1.0372
0.997111
1.02856
0.984324
1.03269
0.999063
1.03713
0.99207
1.03811
0.988113
1.03841
0.983028
1.02632
0.986177
1.03239
0.9883
1.03877
0.986153
1.03511
0.987347
1.03892
0.970007
1.03362
0.960977
1.05896
0.821572
1.76455
0.995626
1.07336
1.00529
1.05673
1.01753
1.04121
0.98874
1.02904
1.00025
1.02843
0.996565
1.0335
0.996771
1.03068
0.980593
1.0336
0.982039
1.02014
0.994189
1.0273
0.999661
1.03593
0.990544
1.04231
0.991146
1.03916
0.988729
1.03388
0.989112
1.03801
0.977844
1.0291
0.987693
1.0377
0.986696
1.04847
0.979064
1.03251
0.958671
1.05586
0.8269
1.76208
1.06527
1.00536
1.08784
1.02365
1.06181
0.98266
1.05711
1.00625
1.02714
0.985979
1.037
0.990906
1.03375
0.987899
1.02394
0.987051
1.02791
0.992266
1.03466
0.992241
1.0296
0.991348
1.04275
0.984046
1.04467
0.989549
1.03858
0.991121
1.02337
0.986985
1.03271
0.986379
1.03855
0.987446
1.03532
0.984843
1.04225
0.973245
1.0361
0.959689
1.05338
0.830117
1.75958
1.00378
1.0687
1.00924
1.05131
1.0189
1.04099
0.994327
1.03607
0.999005
1.03341
1.00149
1.03579
0.998071
1.0367
0.996384
1.03392
0.988053
1.03146
0.979113
1.02369
0.988959
1.02976
0.999037
1.04381
0.993998
1.04451
0.990765
1.04149
0.990633
1.03407
0.98873
1.03699
0.980545
1.03285
0.985591
1.03889
0.985689
1.04834
0.978342
1.034
0.965579
1.05017
0.834833
1.75731
1.05981
1.00933
1.08848
1.0118
1.06592
0.972957
1.0482
1.01459
1.02895
0.992218
1.0381
1.00452
1.0383
0.998065
1.0351
0.99013
1.02608
0.984988
1.03086
0.991426
1.03788
0.988214
1.03682
0.98608
1.05132
0.993404
1.04545
0.991512
1.04008
0.994077
1.02185
0.986196
1.03254
0.985967
1.0396
0.986266
1.03483
0.98555
1.04646
0.975589
1.03859
0.967976
1.04794
0.837071
1.75533
0.997374
1.0657
1.0239
1.0538
1.01489
1.04282
1.00253
1.03696
1.00213
1.02957
1.01156
1.03283
1.00462
1.03636
1.00354
1.03599
0.992129
1.03429
0.982669
1.03108
0.985522
1.02538
0.990807
1.03715
0.999458
1.04649
1.00446
1.04491
0.996028
1.03837
0.998454
1.03316
0.987987
1.03586
0.982076
1.03818
0.981808
1.03626
0.981299
1.04655
0.980629
1.03799
0.967073
1.04992
0.826258
1.75291
1.06929
1.01225
1.08101
0.997779
1.06442
0.971735
1.04099
1.01525
1.02824
1.00276
1.02471
1.00087
1.03927
1.00012
1.03551
1.00115
1.03408
0.989429
1.02825
0.987045
1.02723
0.992237
1.04027
0.98993
1.0424
0.987096
1.04171
1.00294
1.0462
1.00011
1.0351
0.994308
1.02332
0.988209
1.03296
0.986767
1.03767
0.987771
1.03784
0.984291
1.04734
0.975026
1.03995
0.9707
1.06036
0.82835
1.75035
0.999007
1.0597
1.0246
1.06014
1.02382
1.04645
1.00645
1.03272
1.00504
1.02557
1.01687
1.02367
1.01353
1.03487
1.01112
1.03418
1.00455
1.03652
0.988118
1.03505
0.985129
1.02853
0.986026
1.0257
0.996809
1.04163
1.0082
1.03901
1.00012
1.04636
1.00299
1.03729
0.996012
1.02853
0.990147
1.03541
0.985771
1.03927
0.981291
1.03528
0.976829
1.04914
0.978364
1.03888
0.962552
1.05716
0.83435
1.74766
1.07082
1.00464
1.06758
1.00129
1.05931
0.968895
1.03347
1.0142
1.02807
1.01183
1.01966
1.00098
1.02746
0.995447
1.03472
1.00598
1.03092
1.00335
1.03442
0.992026
1.02854
0.995095
1.02797
0.993075
1.0433
0.991621
1.03959
0.990752
1.04186
1.00245
1.0454
1.00224
1.03386
0.992531
1.02705
0.994605
1.03398
0.988163
1.03897
0.995381
1.03558
0.985161
1.04582
0.972711
1.04238
0.964494
1.05371
0.835509
1.74534
1.01465
1.06176
1.01564
1.05917
1.02291
1.04585
1.00881
1.03302
1.0032
1.02182
1.01443
1.0224
1.01218
1.0232
1.01454
1.03176
1.0187
1.02932
1.0029
1.03437
0.989392
1.03675
0.992161
1.02882
0.985895
1.0287
1.00596
1.03943
0.998727
1.03725
1.00499
1.04648
1.00397
1.03616
0.996093
1.02996
0.993721
1.03521
0.985271
1.03929
0.988825
1.04046
0.980284
1.05096
0.972653
1.03969
0.9688
1.05134
0.84068
1.74275
1.06156
0.989982
1.0631
1.02207
1.05524
0.975033
1.03055
1.00931
1.03065
1.01308
1.02161
1.0081
1.02018
1.0012
1.02827
1.00408
1.03005
1.01176
1.02741
1.00061
1.03241
0.997426
1.02778
0.997127
1.02865
0.994311
1.04403
0.990256
1.04075
0.99969
1.04211
1.00735
1.04203
1.001
1.03597
0.990646
1.03291
0.995567
1.03419
0.989494
1.03437
0.989379
1.03605
0.978394
1.05318
0.971125
1.03766
0.970087
1.05313
0.828529
1.74071
1.01785
1.0784
1.01013
1.05354
1.02044
1.04559
1.00662
1.03514
1.00639
1.02267
1.00631
1.02106
1.00484
1.02455
1.01363
1.02357
1.01941
1.02648
1.01477
1.03028
1.01096
1.02949
0.989138
1.03372
0.991694
1.02779
0.991055
1.02891
1.00261
1.0372
0.999769
1.03702
1.007
1.04365
1.00392
1.03893
0.996265
1.03384
0.992389
1.03453
0.992137
1.03732
0.987213
1.04207
0.978725
1.05657
0.979381
1.03849
0.970998
1.06261
0.834345
1.73834
1.05483
1.00783
1.06739
1.03145
1.05487
0.990492
1.03279
1.00979
1.03559
1.01516
1.02426
1.00749
1.02709
1.00372
1.02418
1.00477
1.03257
1.0078
1.02344
1.0119
1.03059
1.00542
1.02996
0.999491
1.02757
0.996692
1.02698
0.994923
1.04352
1.00185
1.03792
1.00156
1.04195
1.01054
1.04548
1.00074
1.03765
0.993753
1.0365
0.995206
1.03507
0.991082
1.03669
0.984826
1.04226
0.98256
1.05528
0.975215
1.03775
0.965966
1.05987
0.836901
1.73608
1.02397
1.06576
1.0014
1.05041
1.01754
1.04621
1.00207
1.03412
1.01478
1.02439
1.00877
1.02141
1.00943
1.02838
1.00377
1.02512
1.01204
1.02305
1.01455
1.0268
1.01303
1.02846
1.01109
1.02896
0.995202
1.03259
0.991013
1.02704
0.991956
1.02958
1.00324
1.03827
1.00735
1.03511
1.00887
1.04226
1.006
1.03977
0.999377
1.03909
0.993054
1.03404
0.993417
1.03727
0.98437
1.04263
0.985716
1.05748
0.983186
1.04
0.968344
1.05736
0.84148
1.73366
1.04267
1.01385
1.07836
1.03176
1.06102
1.00699
1.03144
1.01465
1.03899
1.02634
1.03367
1.01141
1.02619
1.00324
1.02721
1.0009
1.02533
1.003
1.02376
1.01182
1.02556
1.01044
1.02636
1.00669
1.0275
1.00286
1.02643
0.998509
1.0272
0.998472
1.04397
0.998352
1.03698
1.0062
1.04086
1.01191
1.04594
1.00552
1.03927
0.996098
1.03834
0.993969
1.03488
0.993904
1.03958
0.986617
1.04708
0.986988
1.05601
0.983072
1.04104
0.971746
1.05455
0.843392
1.73132
1.03334
1.06621
1.0099
1.04958
1.01831
1.04884
1.00006
1.03734
1.02538
1.02844
1.00867
1.0226
1.00903
1.02341
1.0027
1.02905
0.998475
1.0279
1.01533
1.02128
1.0131
1.02691
1.01453
1.0279
1.00991
1.02683
1.00382
1.02799
0.992467
1.02859
0.996304
1.02939
1.00907
1.03617
1.00566
1.03822
1.01032
1.0428
1.00924
1.04218
1.00015
1.04036
0.991654
1.03316
0.989847
1.03798
0.984137
1.0451
0.994363
1.05397
0.985849
1.04083
0.973114
1.05157
0.848307
1.7287
1.02754
1.01514
1.0821
1.02622
1.06205
1.01233
1.02791
1.01947
1.03469
1.03274
1.03565
1.01799
1.02637
1.00644
1.02634
0.999664
1.02812
1.00572
1.02497
1.00211
1.0262
1.007
1.02496
1.01051
1.0293
1.00874
1.02368
1.00109
1.0268
0.998966
1.02906
1.00218
1.03231
1.00794
1.03656
1.00491
1.04026
1.0155
1.04559
1.00864
1.04033
0.996012
1.03963
0.99217
1.03468
0.99456
1.03861
0.989153
1.04551
0.999073
1.05278
0.992471
1.04197
0.974845
1.04882
0.849236
1.72631
1.02319
1.0596
1.01874
1.05251
1.01796
1.04937
1.00394
1.04265
1.02743
1.03896
1.012
1.02884
1.01565
1.02202
1.01044
1.02434
0.999964
1.02552
1.00449
1.02398
1.0077
1.02629
1.01409
1.02748
1.00851
1.02928
1.01085
1.02687
1.00766
1.02689
0.994556
1.02946
0.997896
1.03066
1.01304
1.03639
1.00707
1.03847
1.01594
1.04142
1.00863
1.04255
1.0015
1.04208
0.989693
1.0351
0.992669
1.03785
0.987629
1.04309
0.998003
1.05172
0.991406
1.04221
0.979724
1.04702
0.85347
1.72405
1.03907
1.00895
1.08417
1.03032
1.06467
1.0087
1.0251
1.02102
1.02799
1.0343
1.03079
1.02733
1.03046
1.01768
1.02627
1.00597
1.02372
1.00303
1.02449
1.00967
1.02725
1.00369
1.03273
1.00888
1.02632
1.00826
1.03036
1.00648
1.02232
1.00514
1.02476
0.998631
1.02882
1.00802
1.03349
1.00849
1.03554
1.00784
1.03918
1.01954
1.04338
1.00874
1.03854
0.994367
1.04036
0.990513
1.03919
0.996136
1.03653
0.995369
1.04464
1.00339
1.04972
0.993825
1.04073
0.976765
1.04822
0.843779
1.72169
1.0165
1.05912
1.02871
1.05474
1.02414
1.04974
1.01105
1.04472
1.02509
1.04727
1.01931
1.03366
1.02216
1.02672
1.01511
1.02255
1.01338
1.0228
1.00731
1.02358
1.005
1.02629
1.00709
1.02446
1.01015
1.02763
1.00843
1.03123
1.01296
1.02599
1.00835
1.02685
0.995858
1.02931
0.995999
1.03142
1.01114
1.03504
1.01015
1.03738
1.02039
1.0414
1.00893
1.03973
0.998675
1.04422
0.989117
1.03952
0.993304
1.03614
0.994299
1.04468
1.0027
1.04875
0.997601
1.038
0.9809
1.05655
0.847825
1.71923
1.04616
1.00578
1.08081
1.03414
1.06515
0.999771
1.02407
1.01658
1.01784
1.03225
1.0242
1.04094
1.02876
1.02779
1.02658
1.01717
1.02343
1.00825
1.01892
1.00767
1.02425
1.00882
1.02797
1.0033
1.03105
1.00434
1.02739
1.00551
1.02934
1.00656
1.02346
1.00567
1.02404
1.00342
1.02683
1.00917
1.03372
1.00856
1.03441
1.01099
1.03709
1.01961
1.03969
1.00674
1.04081
0.991701
1.04211
0.991806
1.04219
0.997761
1.03867
0.997327
1.04829
1.00584
1.04714
1.00062
1.03579
0.97517
1.05428
0.850946
1.71659
1.02627
1.06043
1.03637
1.0555
1.02469
1.05161
1.01581
1.04208
1.02332
1.04805
1.02387
1.03761
1.02338
1.02527
1.02244
1.0246
1.02041
1.01977
1.01704
1.0165
1.009
1.02434
1.00803
1.02578
1.00875
1.02611
1.00908
1.03023
1.00862
1.02932
1.0117
1.02645
1.01086
1.02742
1.00022
1.02858
1.00052
1.03005
1.00896
1.03326
1.01773
1.03587
1.02059
1.03954
1.0055
1.04134
0.996297
1.04661
0.993258
1.0395
0.99136
1.03651
0.996597
1.04888
1.01092
1.04556
1.00388
1.03409
0.97944
1.05146
0.854139
1.71414
1.04453
1.00499
1.08251
1.03327
1.06142
0.995824
1.02598
1.0116
1.01463
1.02571
1.01675
1.04055
1.02545
1.03382
1.0289
1.02438
1.02316
1.01787
1.02045
1.01245
1.022
1.01155
1.02354
1.01282
1.02568
1.00344
1.02985
1.00565
1.0281
1.00803
1.03131
1.00746
1.02244
1.00724
1.02537
1.00256
1.02479
1.01267
1.03146
1.01145
1.03268
1.01308
1.03484
1.02152
1.04019
1.00492
1.04179
0.991509
1.04442
0.995174
1.04257
1.00093
1.04101
0.99874
1.05057
1.00582
1.04467
1.00189
1.03202
0.977443
1.04968
0.856341
1.7114
1.02471
1.06161
1.04127
1.05403
1.02457
1.05138
1.0151
1.03704
1.02248
1.04544
1.02727
1.04373
1.02423
1.03324
1.02595
1.02741
1.02304
1.01985
1.01976
1.0165
1.01932
1.01984
1.01193
1.02343
1.00945
1.02397
1.01133
1.02549
1.01081
1.02988
1.01155
1.02866
1.01162
1.02411
1.00848
1.02488
1.00288
1.02702
1.00333
1.02983
1.01327
1.03154
1.02185
1.03378
1.01912
1.03955
1.00382
1.04624
0.997195
1.04867
0.996859
1.03926
0.992257
1.03891
0.998412
1.04901
1.01241
1.04375
1.00681
1.03055
0.983747
1.05103
0.848812
1.70894
1.04857
1.00902
1.07837
1.03065
1.0462
0.998321
1.02981
1.00953
1.01491
1.02353
1.01561
1.03922
1.01308
1.03812
1.02751
1.03426
1.02742
1.02343
1.02097
1.01948
1.02045
1.01303
1.01977
1.01224
1.02265
1.01254
1.02529
1.00761
1.02858
1.01027
1.02718
1.01085
1.03033
1.01118
1.02232
1.00648
1.02383
1.00647
1.02335
1.01327
1.03075
1.01296
1.02959
1.0159
1.03167
1.01875
1.04031
1.0024
1.04518
0.994133
1.04894
0.997746
1.04192
1.00389
1.04612
1.00079
1.04907
1.01778
1.04211
1.00463
1.02885
0.981305
1.05801
0.851214
1.70658
1.02823
1.05794
1.04152
1.06015
1.02676
1.05205
1.0127
1.03122
1.02
1.0419
1.02756
1.03866
1.03247
1.04821
1.0281
1.03594
1.02683
1.02826
1.02073
1.01847
1.02172
1.01443
1.01861
1.01643
1.01637
1.02304
1.01085
1.02438
1.0148
1.02471
1.01651
1.02985
1.01065
1.02939
1.01609
1.0235
1.00974
1.02297
1.00682
1.02471
1.00309
1.02736
1.01549
1.02805
1.02238
1.03245
1.01731
1.04092
1.00327
1.05097
0.999128
1.04808
0.997918
1.0393
0.996831
1.04165
1.00489
1.04738
1.01493
1.03941
1.01521
1.02714
0.979015
1.05575
0.85561
1.704
1.04778
1.01116
1.07349
1.03023
1.04884
1.00403
1.03254
1.01026
1.01628
1.02535
1.01503
1.03444
1.02015
1.02788
1.0209
1.03176
1.02578
1.02863
1.02265
1.02383
1.01756
1.01941
1.01863
1.01285
1.0187
1.01253
1.02214
1.01301
1.02503
1.00955
1.02705
1.01291
1.02648
1.01309
1.02861
1.01417
1.02196
1.00748
1.02161
1.0078
1.02205
1.01256
1.03054
1.01527
1.02667
1.01691
1.03234
1.01793
1.0386
1.00307
1.04927
0.998936
1.04849
1.00138
1.04338
1.00406
1.04224
1.01116
1.04589
1.02252
1.03791
1.00574
1.02639
0.979412
1.05358
0.85727
1.70153
1.03209
1.0585
1.03992
1.06018
1.00871
1.05345
1.00966
1.02629
1.01895
1.04215
1.02896
1.03781
1.0291
1.02985
1.03095
1.0414
1.0281
1.03083
1.02478
1.02881
1.02231
1.01856
1.0217
1.01477
1.02031
1.01773
1.01674
1.02116
1.01455
1.02316
1.01802
1.02489
1.01943
1.0271
1.013
1.02774
1.01777
1.02146
1.01243
1.02093
1.00816
1.02216
1.0058
1.02552
1.01569
1.02485
1.02236
1.03176
1.01662
1.0407
1.00304
1.0523
1.00505
1.04781
1.00066
1.03797
1.00159
1.04265
1.00944
1.04327
1.01741
1.03565
1.01049
1.02719
0.979364
1.05125
0.862072
1.69876
1.05048
1.01055
1.06677
1.0334
1.05107
1.01076
1.03178
1.0116
1.01768
1.02929
1.01396
1.03537
1.01808
1.03567
1.02284
1.02859
1.02206
1.03383
1.02601
1.02932
1.02027
1.02478
1.02385
1.02009
1.01554
1.01236
1.01695
1.01534
1.02042
1.0148
1.02212
1.01099
1.02457
1.0152
1.02583
1.01449
1.02662
1.01598
1.01982
1.0077
1.01932
1.0096
1.02179
1.01383
1.0273
1.0181
1.02335
1.01671
1.03054
1.01492
1.03909
1.00434
1.05106
1.00507
1.04957
1.00692
1.04253
1.00826
1.04393
1.0171
1.04083
1.02519
1.03354
1.00746
1.02987
0.980946
1.04861
0.863206
1.69604
1.03199
1.05526
1.03829
1.05603
1.00051
1.0551
1.00991
1.0243
1.01899
1.04072
1.03206
1.03948
1.0284
1.03432
1.02805
1.03553
1.0329
1.03148
1.02911
1.03419
1.02657
1.0281
1.0243
1.01939
1.02186
1.01212
1.0192
1.01626
1.01724
1.02016
1.01374
1.02181
1.01785
1.02373
1.02022
1.02566
1.01544
1.02562
1.017
1.01962
1.01254
1.0208
1.00716
1.02268
1.00523
1.02556
1.01584
1.02195
1.02047
1.03059
1.01407
1.0412
1.00665
1.05265
1.0033
1.04581
1.00802
1.0365
1.00136
1.04288
1.01161
1.0387
1.0243
1.03225
1.00685
1.03316
0.97738
1.04722
0.867031
1.69336
1.05294
1.01469
1.05945
1.03584
1.05085
1.01731
1.02979
1.01314
1.01912
1.03226
1.01531
1.03377
1.01579
1.03505
1.01981
1.03535
1.02389
1.03366
1.02579
1.0371
1.02541
1.0315
1.02023
1.02705
1.02286
1.02063
1.02042
1.01364
1.01831
1.017
1.02004
1.01549
1.02148
1.01284
1.02321
1.01598
1.02479
1.01776
1.02418
1.01637
1.01894
1.01011
1.01757
1.01035
1.02214
1.01416
1.02411
1.01852
1.02129
1.01712
1.02875
1.01325
1.04053
1.00806
1.05184
1.00771
1.04578
1.00682
1.04199
1.00832
1.04161
1.01829
1.03642
1.01924
1.03208
1.0045
1.03834
0.980739
1.04843
0.859091
1.69103
1.02946
1.05533
1.04113
1.05137
0.999309
1.05992
1.01087
1.02522
1.0208
1.04095
1.03419
1.0432
1.03325
1.03748
1.03158
1.03487
1.03055
1.03456
1.03495
1.03773
1.02973
1.03152
1.02563
1.02621
1.02424
1.01844
1.02066
1.01645
1.01872
1.01557
1.01829
1.01976
1.01475
1.0233
1.01697
1.0215
1.0197
1.02521
1.0157
1.02321
1.01518
1.02016
1.00979
1.02031
1.0086
1.02062
1.00986
1.02281
1.0147
1.02025
1.01845
1.02911
1.01205
1.04252
1.00725
1.05079
1.01086
1.0466
1.00931
1.03792
1.00569
1.04017
1.01668
1.03464
1.02101
1.03531
1.0022
1.03761
0.978742
1.05588
0.862289
1.68824
1.05334
1.01426
1.05281
1.03615
1.05203
1.02477
1.02729
1.01508
1.01874
1.03583
1.0194
1.0355
1.0179
1.0367
1.02392
1.03442
1.02289
1.03413
1.0253
1.03316
1.02989
1.03475
1.02971
1.03091
1.02233
1.02569
1.02238
1.02015
1.02125
1.01365
1.01791
1.01681
1.01909
1.01632
1.02123
1.01454
1.02005
1.01603
1.02254
1.01827
1.02393
1.01436
1.02112
1.00908
1.01791
1.01169
1.0194
1.01507
1.02181
1.01904
1.01959
1.01884
1.02978
1.01219
1.0425
1.01007
1.04934
1.0083
1.04559
1.00699
1.04146
1.00889
1.03763
1.01975
1.03337
1.01932
1.03649
1.00019
1.03619
0.976264
1.05373
0.865332
1.68528
1.0272
1.05615
1.04065
1.04839
1.00221
1.06397
1.01241
1.0282
1.02239
1.04309
1.03559
1.04473
1.03921
1.04184
1.03375
1.03451
1.03449
1.03197
1.03352
1.03291
1.0341
1.03365
1.02957
1.03051
1.02569
1.02844
1.0232
1.0229
1.02088
1.01848
1.01965
1.01867
1.0199
1.01775
1.01486
1.02254
1.01715
1.02196
1.01703
1.02407
1.01729
1.02201
1.01335
1.02334
1.00848
1.02109
1.009
1.01795
1.00852
1.02101
1.01364
1.01846
1.0167
1.02765
1.012
1.04353
1.01138
1.04929
1.01095
1.04577
1.00877
1.03749
1.00943
1.03582
1.01608
1.03249
1.01792
1.03534
1.00041
1.03645
0.975806
1.05123
0.868672
1.68262
1.05125
1.01307
1.04232
1.03073
1.04923
1.02788
1.02491
1.0169
1.01794
1.04002
1.02054
1.038
1.0236
1.03489
1.02366
1.03786
1.02366
1.03422
1.02513
1.03348
1.026
1.03342
1.02713
1.03436
1.02893
1.032
1.02088
1.02442
1.02541
1.02186
1.02315
1.01356
1.01774
1.01582
1.01742
1.016
1.02261
1.01611
1.02194
1.01546
1.02244
1.01627
1.02431
1.01186
1.02277
1.00788
1.01679
1.01244
1.01808
1.01478
1.02018
1.01681
1.01763
1.01538
1.02929
1.01311
1.0439
1.01225
1.04701
1.01212
1.04427
1.00604
1.04064
1.01389
1.0346
1.02045
1.03184
1.01912
1.03358
0.999452
1.03635
0.975756
1.04943
0.8714
1.67973
1.02896
1.05562
1.03023
1.04684
1.0117
1.06735
1.01468
1.03266
1.0258
1.04466
1.03672
1.04621
1.04181
1.04411
1.04003
1.03821
1.03393
1.03142
1.03521
1.03069
1.03271
1.03074
1.03524
1.03629
1.03009
1.03098
1.02345
1.02827
1.02577
1.02107
1.02171
1.02061
1.02116
1.01927
1.01997
1.01729
1.01332
1.02073
1.01543
1.02132
1.01693
1.02426
1.01869
1.02225
1.01042
1.02408
1.00767
1.01964
1.01121
1.01841
1.01065
1.01909
1.01331
1.01694
1.01543
1.02981
1.01173
1.04479
1.01271
1.04729
1.01384
1.0451
1.00829
1.03779
1.01497
1.03298
1.0182
1.02982
1.01793
1.03256
0.997388
1.04075
0.974988
1.05052
0.864843
1.67707
1.04789
1.01936
1.05558
1.02627
1.04636
1.02981
1.02349
1.0184
1.01852
1.04286
1.02133
1.04263
1.03235
1.0313
1.02757
1.03626
1.02683
1.03876
1.02794
1.03567
1.02904
1.0334
1.02612
1.0335
1.02897
1.0365
1.02909
1.03305
1.02232
1.02514
1.02415
1.02066
1.02299
1.01539
1.01787
1.01448
1.01867
1.01586
1.0217
1.01499
1.02432
1.01468
1.02368
1.01572
1.02386
1.00939
1.02186
1.00687
1.0178
1.0122
1.01813
1.01567
1.01812
1.0139
1.01635
1.01432
1.02882
1.01182
1.04448
1.01436
1.04512
1.01575
1.04329
1.00833
1.03674
1.01722
1.03114
1.02588
1.02771
1.01813
1.03177
0.995182
1.04278
0.976131
1.05754
0.867905
1.67421
1.03098
1.05427
1.0269
1.05063
1.01871
1.06879
1.01851
1.03715
1.02842
1.04612
1.03813
1.05081
1.03975
1.03906
1.04166
1.0381
1.04001
1.03514
1.03481
1.03387
1.03454
1.02976
1.0329
1.02974
1.03406
1.0334
1.02773
1.02925
1.02545
1.02824
1.02705
1.02306
1.02409
1.0206
1.02306
1.01863
1.01838
1.01771
1.0146
1.02105
1.01493
1.02238
1.0159
1.02329
1.01859
1.02324
1.00912
1.02214
1.00811
1.01919
1.00964
1.01741
1.00698
1.01703
1.01317
1.0159
1.01327
1.03131
1.01281
1.04492
1.01811
1.04488
1.02229
1.04352
1.01109
1.03604
1.02088
1.02952
1.01919
1.02573
1.01655
1.03161
0.993764
1.04803
0.972282
1.05541
0.871106
1.67159
1.04584
1.02353
1.05297
1.02182
1.04644
1.02782
1.02349
1.0229
1.01923
1.04515
1.02496
1.04354
1.02855
1.04545
1.03436
1.0358
1.03072
1.03583
1.02802
1.03627
1.02912
1.03345
1.02847
1.03425
1.02777
1.03266
1.02951
1.03593
1.02814
1.03453
1.02311
1.02667
1.02563
1.02187
1.02161
1.01537
1.01769
1.01524
1.01783
1.01588
1.02132
1.01565
1.02374
1.0145
1.02338
1.01412
1.025
1.0107
1.02274
1.00635
1.01823
1.01024
1.01796
1.01644
1.01647
1.01252
1.01512
1.01196
1.03374
1.01255
1.04306
1.01961
1.04378
1.01799
1.04223
1.01411
1.03451
1.02132
1.02768
1.02164
1.0243
1.01529
1.03515
0.992411
1.04897
0.976442
1.0535
0.873922
1.66861
1.03111
1.04886
1.03812
1.05727
1.02644
1.06546
1.02296
1.04022
1.03109
1.04742
1.03781
1.05148
1.04133
1.04747
1.04548
1.04114
1.0424
1.03449
1.03641
1.03342
1.0346
1.03187
1.03415
1.02959
1.0337
1.03136
1.03281
1.03385
1.03056
1.02941
1.02629
1.02879
1.02715
1.02257
1.02304
1.02017
1.02449
1.02062
1.01761
1.01877
1.01375
1.02053
1.01476
1.02292
1.01706
1.02347
1.01945
1.02294
1.01131
1.02182
1.00912
1.02013
1.00919
1.01677
1.0088
1.01555
1.01152
1.01569
1.01055
1.03512
1.01246
1.04322
1.02054
1.04257
1.02094
1.04242
1.01869
1.033
1.02403
1.02604
1.02096
1.02312
1.01346
1.04027
0.98987
1.04695
0.979493
1.05144
0.876944
1.66547
1.04465
1.03088
1.04702
1.02075
1.04424
1.03998
1.02594
1.02695
1.01985
1.04862
1.02848
1.04428
1.03142
1.04388
1.03282
1.04157
1.03428
1.03676
1.03087
1.03435
1.03189
1.03751
1.03
1.03285
1.02739
1.03452
1.0283
1.03155
1.02881
1.03245
1.02768
1.03328
1.02665
1.02795
1.02472
1.02301
1.02435
1.01762
1.01951
1.01427
1.02109
1.01512
1.01999
1.01765
1.02377
1.01481
1.02364
1.01391
1.02376
1.01077
1.02244
1.0064
1.01849
1.00865
1.01617
1.01098
1.01623
1.01039
1.01724
1.00931
1.03723
1.01261
1.0416
1.02146
1.04146
1.01793
1.04044
1.01846
1.03154
1.02291
1.02448
1.01972
1.02334
1.01158
1.04296
0.992831
1.04475
0.981985
1.04947
0.879073
1.66246
1.0309
1.04145
1.04027
1.06298
1.02891
1.0726
1.02561
1.04101
1.03122
1.0463
1.03703
1.05045
1.04268
1.04446
1.04504
1.04158
1.04267
1.03661
1.04249
1.03527
1.0398
1.03018
1.03684
1.03095
1.03429
1.02947
1.03266
1.02935
1.03138
1.03356
1.02972
1.02942
1.02527
1.02895
1.02429
1.02334
1.02497
1.02169
1.02414
1.02
1.01864
1.01943
1.01454
1.01847
1.01453
1.02384
1.01841
1.02431
1.01928
1.02282
1.01335
1.02173
1.00691
1.02145
1.00762
1.0172
1.00936
1.01609
1.00903
1.01841
1.00852
1.03751
1.01331
1.04066
1.01923
1.04035
1.02087
1.0397
1.02153
1.03053
1.02378
1.02308
1.01864
1.02475
1.00999
1.04536
0.995672
1.04422
0.983259
1.04758
0.882392
1.65901
1.04185
1.03096
1.04888
1.02518
1.04329
1.0285
1.02865
1.031
1.02065
1.05107
1.031
1.04707
1.03191
1.0443
1.03468
1.04703
1.03905
1.04373
1.03385
1.04026
1.03327
1.03594
1.03181
1.0361
1.02899
1.03444
1.02782
1.03503
1.02821
1.02973
1.02987
1.03465
1.02741
1.03163
1.02676
1.02964
1.02365
1.0246
1.02401
1.0183
1.02104
1.01654
1.02056
1.0168
1.02118
1.0169
1.02233
1.01553
1.02559
1.01443
1.02282
1.01349
1.02131
1.00542
1.01928
1.00679
1.01686
1.00813
1.01542
1.00736
1.02136
1.0077
1.03898
1.01375
1.03991
1.01917
1.03934
1.02122
1.03801
1.02187
1.02957
1.02217
1.02215
1.01671
1.02718
1.0079
1.0478
0.998426
1.04216
0.984265
1.04585
0.883653
1.65556
1.02946
1.03421
1.03904
1.06291
1.02881
1.07665
1.0289
1.04275
1.0308
1.04357
1.03641
1.04537
1.04172
1.04303
1.04443
1.04275
1.0442
1.04074
1.0434
1.03752
1.04032
1.03591
1.04
1.03207
1.03756
1.03164
1.03485
1.03053
1.03222
1.02901
1.03223
1.03069
1.02872
1.02831
1.02752
1.02836
1.02482
1.02555
1.02314
1.0227
1.02432
1.01956
1.01821
1.0198
1.01592
1.02033
1.01446
1.02326
1.02007
1.02504
1.01946
1.02221
1.0146
1.02197
1.0052
1.02154
1.00571
1.01794
1.00782
1.01593
1.00574
1.02361
1.00707
1.03934
1.01473
1.03891
1.0201
1.03829
1.02368
1.03601
1.02214
1.02919
1.02208
1.02148
1.0147
1.03089
1.00595
1.04909
1.0011
1.04137
0.985763
1.04479
0.887636
1.65211
1.04025
1.02662
1.04773
1.03632
1.04438
1.03381
1.03107
1.03546
1.02048
1.05033
1.03183
1.04932
1.02929
1.0516
1.03864
1.04974
1.03931
1.04182
1.03896
1.04793
1.03573
1.04229
1.03379
1.03509
1.03196
1.03724
1.02865
1.03537
1.02847
1.03457