/*--------------------------------*- C++ -*----------------------------------*\
| =========                 |                                                 |
| \\      /  F ield         | OpenFOAM: The Open Source CFD Toolbox           |
|  \\    /   O peration     | Version:  2206                                  |
|   \\  /    A nd           | Website:  www.openfoam.com                      |
|    \\/     M anipulation  |                                                 |
\*---------------------------------------------------------------------------*/
FoamFile
{
    version     2.0;
    format      ascii;
    arch        "LSB;label=32;scalar=64";
    class       volScalarField;
    location    "180";
    object      rhoMean;
}
// * * * * * * * * * * * * * * * * * * * * * * * * * * * * * * * * * * * * * //

dimensions      [1 -3 0 0 0 0 0];

internalField   nonuniform List<scalar> 
93840
(
2.09456
0.620225
1.98738
1.32228
0.666868
1.79408
0.7503
1.15086
0.716334
1.62201
1.16651
0.959217
1.14696
0.81683
1.49306
0.985044
1.11342
0.936811
1.18463
0.866907
1.3862
1.07427
0.954192
1.12587
0.886483
1.11833
0.894506
1.35288
0.967942
1.09051
0.952798
1.11423
0.91386
1.12269
0.933675
1.32242
1.07253
0.944917
1.09818
0.987756
1.09971
0.951835
1.09059
0.93764
1.32614
0.970236
1.08266
0.950261
1.06813
0.959305
1.08792
0.965124
1.06986
0.937221
1.29132
1.07222
0.96546
1.0931
0.98442
1.08537
0.985364
1.06627
0.993926
1.06997
0.946463
1.31446
0.973239
1.07548
0.96116
1.0667
0.972189
1.06492
0.97221
1.0612
0.992017
1.0555
0.94578
1.29081
1.06705
0.965265
1.08075
0.993674
1.07269
0.995779
1.06664
1.00428
1.04445
1.00169
1.05861
0.949612
1.3058
0.974381
1.06994
0.96527
1.05626
0.98544
1.05606
0.988632
1.05954
0.998238
1.05319
0.994619
1.05578
0.948378
1.28043
1.06862
0.967121
1.07082
0.992586
1.05767
0.997234
1.06018
1.0043
1.05149
1.01119
1.04011
0.999514
1.05694
0.952503
1.29958
0.977557
1.07021
0.967751
1.04548
0.98329
1.04355
0.988366
1.04641
1.00496
1.05493
0.999379
1.04972
0.997432
1.05286
0.950826
1.27201
1.06919
0.971506
1.06551
0.992637
1.04682
0.996639
1.05076
0.99999
1.05129
1.00957
1.0485
1.01135
1.03935
0.998647
1.05656
0.955775
1.29225
0.980115
1.06932
0.97326
1.04235
0.988041
1.03911
0.990575
1.03807
0.998614
1.04203
1.00618
1.05091
1.00278
1.04685
0.999196
1.05082
0.953475
1.26433
1.06952
0.974778
1.06271
0.996911
1.04526
1.00153
1.04902
1.00167
1.04613
1.00322
1.04663
1.0122
1.04324
1.01176
1.03965
0.999652
1.05501
0.958716
1.28568
0.981211
1.07039
0.979433
1.0412
0.993814
1.03782
0.997049
1.03864
0.997592
1.0349
1.00072
1.04006
1.00808
1.0487
1.00395
1.04406
1.00105
1.04923
0.955977
1.25824
1.06981
0.978915
1.06084
1.00027
1.04254
1.00396
1.04726
1.0062
1.0466
1.00351
1.04327
1.00569
1.04313
1.01506
1.04174
1.0125
1.03906
1.00028
1.05312
0.961626
1.27913
0.983194
1.06989
0.984093
1.04068
0.999291
1.03719
1.00313
1.03879
1.00286
1.03716
1.00076
1.03306
1.00268
1.03662
1.00801
1.04727
1.00703
1.04161
1.00305
1.04735
0.958585
1.25352
1.07017
0.983802
1.0593
1.00365
1.04182
1.00746
1.04664
1.01008
1.04531
1.00686
1.04403
1.00702
1.04136
1.00705
1.04068
1.01495
1.03952
1.01311
1.03979
1.0016
1.05123
0.964762
1.27205
0.986072
1.0697
0.98942
1.04097
1.00358
1.0371
1.0086
1.03939
1.00898
1.03813
1.0045
1.0334
1.00525
1.03147
1.00459
1.03588
1.01111
1.04503
1.00928
1.03923
1.00441
1.04541
0.961231
1.24977
1.07042
0.988638
1.0592
1.00857
1.04216
1.01078
1.04622
1.01522
1.04487
1.01125
1.04015
1.01285
1.04094
1.00818
1.03792
1.00721
1.03634
1.0161
1.03836
1.01432
1.03889
1.00309
1.04978
0.965448
1.24889
0.987591
1.06811
0.993674
1.03992
1.00767
1.0376
1.01288
1.03933
1.01458
1.0383
1.01161
1.03441
1.00897
1.03311
1.00679
1.03058
1.00676
1.03503
1.01376
1.04265
1.01165
1.03786
1.00508
1.04358
0.958888
1.23874
1.06841
0.989906
1.05503
1.01018
1.0393
1.01122
1.04424
1.01857
1.04423
1.01658
1.04276
1.0168
1.03988
1.0133
1.03821
1.01118
1.03671
1.00953
1.03401
1.01545
1.038
1.0148
1.03882
1.00363
1.04739
0.974736
1.24579
0.987621
1.06411
0.99439
1.0356
1.00844
1.03437
1.01292
1.03629
1.01711
1.03862
1.01644
1.03754
1.01348
1.03447
1.00945
1.03244
1.00799
1.03045
1.00746
1.03361
1.01564
1.04108
1.01269
1.03714
1.00576
1.03951
0.969345
1.24145
1.06559
0.990392
1.05047
1.01055
1.03599
1.00978
1.03968
1.01818
1.0419
1.01904
1.0435
1.01832
1.04225
1.01682
1.03817
1.01525
1.03732
1.01115
1.0354
1.0108
1.03275
1.01594
1.03823
1.01392
1.03869
1.00391
1.04442
0.97282
1.24548
0.988439
1.05947
0.995771
1.03145
1.00764
1.03026
1.01279
1.03305
1.01697
1.03602
1.01788
1.03858
1.0175
1.03712
1.01423
1.03332
1.01046
1.03208
1.00897
1.03008
1.00801
1.03276
1.01517
1.04121
1.01286
1.037
1.00668
1.04078
0.968742
1.23872
1.06356
0.991001
1.04571
1.0108
1.03272
1.00826
1.03582
1.01658
1.03765
1.01806
1.04122
1.01931
1.04284
1.0187
1.04143
1.01757
1.03849
1.01495
1.03633
1.0108
1.03409
1.01124
1.03167
1.01537
1.03824
1.01276
1.03825
1.00441
1.04463
0.971333
1.24178
0.989847
1.0542
0.99568
1.02736
1.0068
1.026
1.01213
1.02859
1.01604
1.03351
1.01759
1.03621
1.01835
1.03846
1.01829
1.03664
1.01516
1.03325
1.01131
1.03182
1.00954
1.02951
1.00869
1.0327
1.01419
1.041
1.01404
1.03609
1.00688
1.04187
0.968514
1.23484
1.06267
0.992618
1.03975
1.00867
1.029
1.00631
1.0312
1.0138
1.03411
1.01688
1.03707
1.0172
1.04069
1.01991
1.04201
1.01925
1.04081
1.01815
1.03783
1.01507
1.03605
1.01244
1.03344
1.01073
1.03116
1.0154
1.03837
1.01248
1.03755
1.00389
1.0443
0.973304
1.23702
0.991846
1.05037
0.998161
1.02547
1.00677
1.0228
1.01138
1.02463
1.01555
1.02937
1.01585
1.03362
1.01738
1.03619
1.01895
1.03787
1.01957
1.03635
1.01549
1.03324
1.0121
1.03168
1.01022
1.02918
1.00859
1.03236
1.01378
1.0406
1.01479
1.03574
1.00661
1.04083
0.9703
1.23027
1.06009
0.994476
1.03616
1.0091
1.02667
1.00562
1.02774
1.01247
1.03019
1.01381
1.03342
1.0169
1.03678
1.01811
1.03869
1.02011
1.04135
1.01998
1.04026
1.01875
1.03706
1.01531
1.03506
1.01269
1.03251
1.01126
1.03077
1.01513
1.03782
1.01294
1.03751
1.00523
1.04332
0.971271
1.2325
0.993374
1.04753
1.00034
1.02297
1.00607
1.01989
1.01069
1.02128
1.01476
1.02575
1.01507
1.02954
1.0159
1.03332
1.01901
1.03574
1.02025
1.03709
1.02023
1.03614
1.01647
1.0335
1.01257
1.03197
1.0108
1.02874
1.00918
1.03145
1.01372
1.03977
1.01513
1.03571
1.00647
1.0437
0.968806
1.22597
1.05833
0.996792
1.03421
1.01044
1.02461
1.00538
1.02536
1.01249
1.02739
1.01275
1.03011
1.01424
1.03253
1.01699
1.03584
1.0179
1.03869
1.02044
1.04052
1.02055
1.03921
1.01834
1.03666
1.0152
1.03464
1.01329
1.03144
1.011
1.0304
1.01548
1.03734
1.01346
1.03748
1.00281
1.04471
0.974141
1.2281
0.995919
1.04604
1.00212
1.02053
1.00579
1.01852
1.01193
1.0214
1.01543
1.02316
1.01453
1.02553
1.0151
1.02943
1.01646
1.03256
1.01982
1.03468
1.02173
1.0366
1.02106
1.03623
1.01728
1.03353
1.01362
1.03175
1.01198
1.02877
1.01032
1.03092
1.014
1.039
1.01538
1.03529
1.00638
1.0412
0.971639
1.22175
1.05866
1.0013
1.03417
1.01215
1.02401
1.00774
1.02687
1.01644
1.02809
1.01366
1.02768
1.01298
1.02958
1.01454
1.03186
1.01723
1.03471
1.01884
1.03762
1.02004
1.04051
1.02102
1.03953
1.01846
1.03622
1.01519
1.03376
1.0135
1.03111
1.01113
1.02947
1.01542
1.03701
1.01342
1.03734
1.00401
1.04225
0.976539
1.22369
1.00005
1.04723
1.00536
1.02091
1.00866
1.02031
1.01636
1.02399
1.01774
1.02415
1.01604
1.02389
1.01483
1.0257
1.01523
1.02896
1.01745
1.03306
1.02075
1.03459
1.02138
1.03627
1.02135
1.03599
1.01826
1.0336
1.01445
1.03159
1.01239
1.02879
1.01069
1.03093
1.01398
1.039
1.01544
1.03531
1.00736
1.04041
0.969809
1.2176
1.05994
1.00715
1.03521
1.01542
1.02683
1.01308
1.03031
1.02094
1.03109
1.01808
1.02882
1.01358
1.02724
1.013
1.02893
1.01463
1.03167
1.01728
1.0336
1.01888
1.03695
1.0212
1.03973
1.0214
1.03876
1.01905
1.03579
1.01549
1.03365
1.0136
1.03085
1.01116
1.02916
1.01483
1.03711
1.01332
1.03742
1.00415
1.04496
0.974857
1.2197
1.00383
1.04925
1.01005
1.02381
1.01311
1.02301
1.02053
1.02582
1.02084
1.027
1.01868
1.02488
1.01737
1.02368
1.01509
1.02509
1.01589
1.02887
1.01792
1.03311
1.02103
1.03425
1.02171
1.03652
1.02184
1.03594
1.01891
1.0334
1.01499
1.03153
1.01257
1.02882
1.0108
1.0307
1.01397
1.03877
1.01533
1.03531
1.00555
1.04209
0.972791
1.21327
1.06007
1.01203
1.03694
1.01984
1.03029
1.01705
1.03119
1.02169
1.03223
1.02205
1.03181
1.01845
1.02897
1.01276
1.02625
1.0136
1.02888
1.01484
1.03116
1.01737
1.03322
1.01914
1.03644
1.02162
1.03898
1.02183
1.03826
1.01928
1.03527
1.01573
1.03327
1.01368
1.03048
1.01117
1.02897
1.01428
1.03717
1.01322
1.03752
1.00321
1.0423
0.977993
1.21618
1.00696
1.05005
1.01403
1.02618
1.01638
1.02367
1.02129
1.02417
1.02117
1.02784
1.02126
1.02775
1.01987
1.02518
1.01738
1.0241
1.01559
1.02526
1.01644
1.02869
1.01825
1.03264
1.02137
1.03414
1.02179
1.03643
1.02236
1.03586
1.01941
1.03317
1.01538
1.03143
1.01285
1.02856
1.01075
1.03039
1.01379
1.03841
1.0151
1.03516
1.00685
1.03963
0.975566
1.21007
1.05933
1.0162
1.03909
1.02357
1.03167
1.01779
1.0294
1.0205
1.03185
1.0224
1.03214
1.02213
1.03157
1.01827
1.02945
1.01505
1.02603
1.0137
1.02785
1.01512
1.03056
1.01719
1.03268
1.01905
1.03574
1.02193
1.03832
1.02177
1.03806
1.01958
1.03494
1.01571
1.03294
1.01389
1.03021
1.01127
1.02886
1.01391
1.03716
1.01311
1.0377
1.00417
1.0399
0.979632
1.21295
1.00862
1.05001
1.01722
1.02712
1.01687
1.02128
1.01965
1.02165
1.01971
1.02535
1.02072
1.02819
1.02141
1.0282
1.02073
1.02528
1.01736
1.02472
1.01621
1.02511
1.01662
1.02858
1.01833
1.03232
1.02158
1.03382
1.02175
1.03655
1.0225
1.03577
1.01981
1.03296
1.01601
1.03114
1.01307
1.02868
1.0106
1.03018
1.01357
1.03804
1.01484
1.03527
1.00741
1.03916
0.973484
1.20668
1.05733
1.01823
1.03923
1.0239
1.02992
1.01629
1.02686
1.01882
1.0294
1.02022
1.03118
1.02234
1.03198
1.02212
1.0315
1.01865
1.02842
1.01557
1.0257
1.01428
1.0278
1.01524
1.03032
1.01762
1.03226
1.01939
1.03509
1.02243
1.03826
1.02155
1.03795
1.01943
1.03445
1.01575
1.03266
1.01389
1.02992
1.01108
1.02859
1.01366
1.03737
1.01299
1.03788
1.00427
1.04224
0.977546
1.20942
1.00933
1.04766
1.01743
1.02522
1.01501
1.01773
1.0176
1.01951
1.01733
1.02241
1.01963
1.02581
1.02105
1.02811
1.02207
1.02832
1.02124
1.02607
1.01754
1.0248
1.01609
1.02496
1.0168
1.02834
1.01849
1.03162
1.0217
1.03314
1.022
1.03626
1.02211
1.03571
1.0202
1.03304
1.01622
1.03111
1.01318
1.02856
1.01075
1.02999
1.01324
1.03795
1.01441
1.03517
1.00572
1.04057
0.975166
1.20297
1.0546
1.01886
1.03726
1.02202
1.02729
1.0147
1.02455
1.01746
1.02634
1.01813
1.02822
1.01922
1.03002
1.02142
1.03098
1.02208
1.03159
1.01881
1.0296
1.01601
1.02553
1.0143
1.02748
1.01539
1.02958
1.0181
1.03202
1.01948
1.03429
1.02273
1.03799
1.0224
1.03763
1.01961
1.03439
1.01591
1.03244
1.01399
1.02968
1.01107
1.02847
1.01341
1.03709
1.01311
1.03757
1.00346
1.04055
0.978926
1.20574
1.01029
1.0449
1.01681
1.02215
1.01257
1.01476
1.01586
1.01786
1.01522
1.02032
1.01721
1.02296
1.01938
1.02641
1.02148
1.02837
1.02261
1.0286
1.02117
1.02612
1.01784
1.02501
1.01597
1.02492
1.01664
1.02772
1.01847
1.03149
1.02189
1.03299
1.02223
1.03566
1.02281
1.03556
1.0203
1.03295
1.01622
1.03096
1.01342
1.02847
1.01076
1.02983
1.01309
1.03708
1.01522
1.0351
1.00644
1.03927
0.976443
1.19937
1.05242
1.01948
1.0353
1.02047
1.02584
1.01387
1.02269
1.01641
1.02454
1.01704
1.02598
1.01738
1.02806
1.01922
1.02928
1.02092
1.03092
1.02187
1.03091
1.01945
1.02923
1.01659
1.02548
1.01485
1.02708
1.01552
1.02964
1.01832
1.03159
1.01977
1.03399
1.0229
1.03691
1.02276
1.03732
1.01977
1.03415
1.01607
1.03214
1.01388
1.02942
1.01119
1.02831
1.01342
1.03637
1.01354
1.0374
1.00383
1.04007
0.977216
1.20239
1.01095
1.04277
1.01669
1.01925
1.01135
1.01343
1.01516
1.01759
1.0155
1.01992
1.01526
1.02072
1.01704
1.0229
1.01927
1.02675
1.02117
1.02875
1.02253
1.02902
1.02142
1.02612
1.01797
1.02468
1.01577
1.02504
1.0171
1.02741
1.01856
1.03089
1.0219
1.03271
1.02251
1.03534
1.02288
1.03527
1.02052
1.03257
1.01635
1.03066
1.01359
1.02792
1.01094
1.0295
1.01343
1.03644
1.01548
1.03488
1.00646
1.04116
0.975498
1.19611
1.05038
1.01967
1.03444
1.01935
1.0249
1.01317
1.02131
1.0164
1.02465
1.01677
1.02468
1.01678
1.0254
1.01701
1.02671
1.01898
1.02933
1.02172
1.03063
1.02186
1.03141
1.02002
1.02897
1.01677
1.02579
1.01498
1.02667
1.01564
1.02915
1.01843
1.03118
1.02003
1.03379
1.02305
1.03667
1.023
1.03701
1.01996
1.03408
1.01605
1.03199
1.0141
1.02878
1.01124
1.02781
1.01401
1.0358
1.01354
1.03715
1.0024
1.04031
0.979463
1.19917
1.01235
1.0411
1.01531
1.01753
1.01157
1.0129
1.01509
1.01808
1.01688
1.02052
1.01574
1.0208
1.01549
1.02105
1.01742
1.0238
1.01945
1.02706
1.02114
1.02898
1.02266
1.02901
1.02167
1.02618
1.01829
1.02482
1.01614
1.02468
1.01714
1.02714
1.01875
1.0305
1.02181
1.03244
1.02267
1.03524
1.02302
1.03513
1.02059
1.03249
1.01633
1.03043
1.01399
1.02811
1.011
1.02838
1.0142
1.03624
1.0155
1.03478
1.00609
1.03924
0.97731
1.19271
1.0488
1.02117
1.0347
1.01809
1.02478
1.01342
1.02149
1.01757
1.02581
1.0173
1.02504
1.01681
1.02353
1.01661
1.0255
1.0171
1.02642
1.01886
1.02865
1.02162
1.0306
1.02227
1.03117
1.0204
1.02878
1.01723
1.02562
1.01522
1.0268
1.01569
1.02871
1.01855
1.03077
1.02015
1.03354
1.02286
1.0361
1.02305
1.03677
1.02007
1.03378
1.01626
1.03159
1.01415
1.02862
1.01174
1.0268
1.01399
1.03561
1.01356
1.03702
1.00379
1.03876
0.980073
1.19581
1.01369
1.04058
1.01613
1.01848
1.01195
1.01282
1.01579
1.01889
1.01807
1.02141
1.01727
1.02083
1.01641
1.02129
1.01595
1.02129
1.01732
1.024
1.01966
1.02635
1.02122
1.02878
1.02297
1.02927
1.0218
1.02645
1.0178
1.02475
1.01628
1.02451
1.01727
1.02675
1.01879
1.03027
1.0215
1.0322
1.02283
1.03471
1.02298
1.03494
1.02069
1.0323
1.01644
1.03021
1.01415
1.02783
1.01154
1.0282
1.01415
1.03579
1.01551
1.03473
1.00685
1.03851
0.977977
1.1894
1.04796
1.02211
1.03374
1.01788
1.02498
1.01429
1.02242
1.01854
1.02649
1.01782
1.02602
1.01746
1.02507
1.01689
1.02404
1.01642
1.02427
1.01737
1.02575
1.01917
1.02882
1.02189
1.03024
1.02218
1.03047
1.02067
1.02862
1.01794
1.02544
1.01523
1.02644
1.01578
1.02846
1.01861
1.03042
1.02036
1.03328
1.02284
1.03626
1.0231
1.03646
1.02011
1.03356
1.01637
1.0314
1.01419
1.02822
1.01174
1.02649
1.01393
1.0352
1.0136
1.03679
1.00425
1.0377
0.981246
1.19265
1.01594
1.04044
1.01749
1.01854
1.01255
1.01346
1.017
1.01925
1.01828
1.02151
1.01802
1.02258
1.01721
1.02174
1.01653
1.02148
1.01659
1.02165
1.01711
1.02397
1.01957
1.02601
1.02177
1.02897
1.02329
1.02943
1.02229
1.02669
1.01817
1.0248
1.01618
1.0245
1.01716
1.02666
1.01875
1.03005
1.02145
1.03179
1.02287
1.03431
1.0232
1.03474
1.02074
1.0321
1.01661
1.03005
1.01444
1.02778
1.01179
1.0278
1.01396
1.03511
1.01542
1.03448
1.00651
1.03742
0.979098
1.18634
1.04808
1.02402
1.03433
1.01929
1.02594
1.01574
1.02336
1.01835
1.02611
1.01758
1.0265
1.0182
1.0259
1.01819
1.02468
1.01694
1.02393
1.01664
1.02413
1.01753
1.02567
1.01943
1.0285
1.02138
1.02996
1.0226
1.03016
1.02086
1.02852
1.01803
1.02531
1.01556
1.02627
1.01597
1.0282
1.01858
1.03007
1.02031
1.03297
1.02269
1.03609
1.02296
1.03627
1.02032
1.03334
1.01642
1.03097
1.01422
1.02798
1.01164
1.0262
1.01402
1.03498
1.01367
1.03655
1.00435
1.03686
0.98104
1.18967
1.01821
1.04145
1.01846
1.01924
1.01399
1.01457
1.01781
1.01842
1.0177
1.02101
1.01798
1.02202
1.01814
1.02251
1.01798
1.02202
1.01728
1.0217
1.01666
1.02205
1.01752
1.0242
1.01956
1.02638
1.02184
1.02931
1.02335
1.0298
1.0224
1.02686
1.01826
1.02454
1.01634
1.02418
1.0171
1.02645
1.0187
1.02982
1.02145
1.03175
1.02282
1.03422
1.0231
1.03464
1.02074
1.03187
1.01679
1.02983
1.01452
1.0276
1.012
1.02733
1.01384
1.03472
1.01528
1.03444
1.00673
1.03763
0.978821
1.18342
1.04735
1.02525
1.03491
1.02035
1.02652
1.01683
1.02351
1.01713
1.02525
1.0168
1.0259
1.01795
1.02647
1.0183
1.02532
1.01831
1.02435
1.01684
1.0236
1.01704
1.02416
1.0174
1.02542
1.0195
1.02814
1.02188
1.02963
1.02299
1.03005
1.02097
1.02804
1.01829
1.02549
1.01554
1.02609
1.01607
1.02792
1.01847
1.02971
1.0203
1.03263
1.02258
1.03576
1.02304
1.03599
1.02042
1.03312
1.01643
1.03078
1.01424
1.02768
1.01163
1.02587
1.01398
1.03453
1.01375
1.03609
1.00386
1.03722
0.981156
1.18672
1.02016
1.04218
1.01983
1.02036
1.01515
1.01508
1.01764
1.01694
1.01708
1.02
1.01673
1.02149
1.01785
1.02224
1.01853
1.02335
1.01834
1.0228
1.01787
1.02202
1.01674
1.02206
1.01759
1.02409
1.01947
1.02645
1.02179
1.02925
1.02321
1.02973
1.02264
1.02742
1.0184
1.02437
1.01639
1.0242
1.01697
1.0263
1.01873
1.02952
1.02133
1.03144
1.0227
1.03395
1.02301
1.03448
1.02079
1.03169
1.01689
1.02955
1.01457
1.02746
1.01203
1.02692
1.01359
1.03448
1.01515
1.03413
1.00656
1.03736
0.979231
1.18061
1.04778
1.02733
1.03608
1.02226
1.02711
1.01755
1.02303
1.01578
1.02464
1.01578
1.02459
1.01733
1.02533
1.01824
1.02616
1.01897
1.02463
1.01835
1.02437
1.01737
1.02355
1.01713
1.02387
1.0174
1.02521
1.01962
1.02803
1.022
1.02961
1.02313
1.03036
1.02125
1.02774
1.01842
1.02553
1.01564
1.02586
1.01614
1.02758
1.01844
1.0295
1.02031
1.03249
1.02247
1.03548
1.02314
1.03565
1.02048
1.0329
1.01634
1.0305
1.01425
1.02741
1.0117
1.02559
1.01384
1.03412
1.01403
1.0355
1.00363
1.03617
0.982288
1.18369
1.02162
1.04317
1.02127
1.02151
1.01632
1.01526
1.01693
1.01558
1.01651
1.01817
1.0157
1.01988
1.01706
1.02172
1.01792
1.02237
1.01874
1.0236
1.01854
1.023
1.01787
1.02197
1.0169
1.02194
1.01783
1.02425
1.01945
1.02647
1.02189
1.02919
1.02339
1.02962
1.02267
1.02763
1.01855
1.02438
1.01644
1.02411
1.01675
1.02614
1.0187
1.02925
1.02098
1.03129
1.02251
1.03385
1.0231
1.03428
1.02076
1.03146
1.01682
1.02922
1.0147
1.02721
1.012
1.02649
1.01336
1.03418
1.01539
1.0337
1.00663
1.03635
0.978954
1.17776
1.04722
1.02879
1.03628
1.02336
1.0274
1.01774
1.0221
1.01454
1.02402
1.01451
1.02353
1.01634
1.02395
1.0169
1.02426
1.01876
1.02615
1.01902
1.02545
1.01854
1.02444
1.01757
1.02363
1.01708
1.02383
1.01746
1.02486
1.0198
1.02785
1.02214
1.02959
1.02317
1.03009
1.02149
1.02778
1.0185
1.02557
1.01567
1.02552
1.01635
1.02739
1.01834
1.0293
1.02052
1.03227
1.02248
1.03518
1.02302
1.03552
1.02062
1.03275
1.01652
1.0304
1.01425
1.02708
1.01178
1.0253
1.01362
1.03354
1.01433
1.03512
1.00403
1.03663
0.981326
1.18081
1.02281
1.04359
1.02294
1.02234
1.01709
1.01477
1.01577
1.01441
1.01591
1.01657
1.01495
1.01885
1.01541
1.02003
1.0175
1.02184
1.01827
1.02258
1.01908
1.02364
1.0188
1.0232
1.01785
1.02205
1.01698
1.02211
1.01794
1.02424
1.01954
1.02647
1.02199
1.02915
1.02349
1.02997
1.02268
1.02762
1.01857
1.02427
1.01646
1.02403
1.0167
1.02597
1.01853
1.02899
1.02088
1.03115
1.02238
1.03376
1.02297
1.03398
1.02077
1.03129
1.01687
1.02892
1.01483
1.02697
1.01194
1.02609
1.01319
1.03364
1.01561
1.03346
1.00616
1.03669
0.979524
1.17511
1.04669
1.03027
1.03664
1.02441
1.02755
1.01737
1.02094
1.0137
1.02354
1.01337
1.02313
1.01514
1.02293
1.01627
1.02369
1.01739
1.02429
1.01868
1.02541
1.01931
1.02524
1.01896
1.02471
1.01779
1.02378
1.01749
1.0236
1.01761
1.02485
1.01974
1.0277
1.02209
1.02956
1.02331
1.03003
1.02167
1.02785
1.01867
1.02536
1.01568
1.02534
1.01632
1.02711
1.01837
1.02914
1.02039
1.03202
1.02231
1.03488
1.02329
1.03511
1.02075
1.03252
1.01654
1.03003
1.01433
1.02672
1.01185
1.02492
1.0135
1.03292
1.01449
1.03461
1.0037
1.03558
0.981835
1.17813
1.02347
1.04382
1.02415
1.02229
1.01722
1.01377
1.01478
1.01385
1.01564
1.0158
1.01494
1.01738
1.0143
1.0183
1.01601
1.02056
1.01752
1.02194
1.01891
1.02286
1.01929
1.02343
1.01893
1.02319
1.01815
1.02209
1.01714
1.02234
1.018
1.02414
1.01969
1.02651
1.02207
1.02908
1.02347
1.02978
1.0228
1.02767
1.01866
1.02441
1.01645
1.02398
1.01667
1.0258
1.01845
1.02878
1.02073
1.03102
1.02205
1.03366
1.02299
1.03364
1.0208
1.03115
1.01695
1.02865
1.01495
1.02671
1.01179
1.02576
1.01317
1.03305
1.016
1.03308
1.00645
1.03557
0.980248
1.17253
1.04605
1.03135
1.03696
1.02494
1.02717
1.01661
1.02002
1.01325
1.02298
1.01257
1.02303
1.01377
1.0224
1.01509
1.02256
1.01608
1.02285
1.01759
1.02426
1.01845
1.02498
1.01952
1.02561
1.01909
1.02469
1.01789
1.02365
1.01766
1.02349
1.01771
1.02469
1.01968
1.02765
1.02202
1.02957
1.02341
1.02995
1.02166
1.02782
1.01876
1.02525
1.01583
1.02519
1.01626
1.02687
1.01828
1.02901
1.02025
1.03179
1.02232
1.03459
1.02327
1.03497
1.02074
1.0322
1.0166
1.02965
1.01432
1.02641
1.01181
1.02464
1.01336
1.03196
1.01485
1.03393
1.00402
1.03419
0.982531
1.1753
1.0245
1.0439
1.02541
1.02225
1.01738
1.01301
1.01432
1.01371
1.01537
1.01543
1.01504
1.01737
1.01419
1.01829
1.01466
1.01923
1.01603
1.02108
1.0172
1.02213
1.01932
1.02357
1.01926
1.0236
1.019
1.02331
1.01833
1.02248
1.01718
1.02245
1.01801
1.02428
1.01971
1.02653
1.02215
1.02899
1.02348
1.02999
1.0229
1.02756
1.01885
1.02443
1.01648
1.02383
1.01663
1.02564
1.01831
1.02866
1.02064
1.03091
1.02202
1.03347
1.02302
1.03345
1.02093
1.03087
1.01696
1.02843
1.01499
1.02635
1.01168
1.02525
1.01325
1.03242
1.01644
1.03262
1.00679
1.03438
0.981142
1.16981
1.04468
1.03185
1.03628
1.02471
1.02645
1.01589
1.01942
1.01294
1.02258
1.01258
1.02332
1.01282
1.0219
1.01363
1.0213
1.01481
1.02096
1.01623
1.02171
1.01803
1.02403
1.01861
1.02467
1.01993
1.02541
1.01937
1.02464
1.01782
1.02362
1.0178
1.02344
1.01777
1.0247
1.01963
1.02758
1.02206
1.02959
1.02332
1.03006
1.02179
1.02765
1.01891
1.02504
1.01584
1.02507
1.01619
1.02674
1.01818
1.02876
1.02009
1.03153
1.02222
1.03444
1.02319
1.03458
1.02086
1.03197
1.01656
1.02932
1.01426
1.02606
1.01177
1.02439
1.01292
1.0311
1.01499
1.03332
1.00417
1.03371
0.981672
1.17232
1.02456
1.04303
1.02573
1.02202
1.01749
1.0124
1.01423
1.01375
1.01536
1.01588
1.01547
1.01718
1.0146
1.01831
1.0146
1.01835
1.01517
1.01961
1.01631
1.02102
1.01697
1.02207
1.01933
1.0236
1.01952
1.02377
1.01914
1.02329
1.01843
1.02253
1.01721
1.02258
1.01807
1.0243
1.01972
1.02653
1.02217
1.02892
1.02357
1.02992
1.02304
1.02782
1.01895
1.02456
1.0165
1.02378
1.01661
1.02552
1.01821
1.02857
1.02051
1.03084
1.02193
1.03334
1.02305
1.03317
1.02092
1.03074
1.01689
1.02826
1.015
1.02607
1.01165
1.02498
1.01365
1.03211
1.0166
1.03226
1.00676
1.03548
0.980435
1.16705
1.0438
1.03207
1.03608
1.02464
1.02585
1.01545
1.01919
1.0128
1.02251
1.01305
1.0236
1.01295
1.02285
1.01236
1.02038
1.01398
1.02059
1.01543
1.02031
1.01668
1.02158
1.01852
1.02387
1.01897
1.02435
1.01985
1.02518
1.01955
1.02482
1.01817
1.02377
1.01784
1.0234
1.01768
1.02468
1.01968
1.02745
1.0219
1.02964
1.02338
1.03017
1.02185
1.02775
1.01894
1.02504
1.01583
1.02495
1.01607
1.02653
1.01804
1.02868
1.01999
1.03129
1.02213
1.03421
1.02311
1.03431
1.02081
1.03177
1.01646
1.02899
1.01417
1.02588
1.01161
1.02416
1.01251
1.0306
1.01501
1.03294
1.0031
1.03422
0.98257
1.16924
1.02447
1.04329
1.02664
1.02144
1.0175
1.01197
1.01441
1.01383
1.01549
1.01641
1.01559
1.01771
1.01517
1.01756
1.01528
1.01821
1.01467
1.01888
1.01538
1.01943
1.01639
1.02143
1.01727
1.02223
1.01916
1.02384
1.01964
1.02408
1.01909
1.02349
1.01849
1.02258
1.01731
1.02261
1.0181
1.02422
1.01972
1.02644
1.02225
1.02899
1.02357
1.0299
1.02312
1.02782
1.01898
1.02461
1.0165
1.02369
1.01657
1.02531
1.01811
1.02844
1.02041
1.03067
1.02184
1.03298
1.02278
1.0331
1.0209
1.03059
1.01687
1.02802
1.01494
1.02582
1.01159
1.02472
1.01342
1.03179
1.01656
1.032
1.0063
1.03421
0.981516
1.16448
1.04301
1.03224
1.03597
1.02408
1.02532
1.01523
1.01923
1.01282
1.02285
1.01385
1.0242
1.01372
1.02282
1.01336
1.02162
1.01355
1.02039
1.01481
1.02002
1.01575
1.02063
1.01671
1.02149
1.0183
1.02351
1.01917
1.02422
1.02002
1.025
1.01971
1.02478
1.01833
1.02376
1.01793
1.02333
1.01776
1.02463
1.01963
1.02758
1.02191
1.02944
1.02344
1.03008
1.0219
1.02782
1.01908
1.02497
1.01582
1.0248
1.01599
1.02649
1.01793
1.02862
1.01985
1.03113
1.02206
1.03411
1.02338
1.03403
1.02073
1.03152
1.01636
1.02867
1.01414
1.02558
1.01145
1.02383
1.01236
1.03014
1.01498
1.03249
1.00388
1.03287
0.982961
1.16458
1.02519
1.04294
1.02655
1.02075
1.01761
1.01179
1.01481
1.01395
1.0158
1.01697
1.01599
1.01847
1.01557
1.0181
1.01542
1.01765
1.01526
1.01819
1.0147
1.01879
1.01522
1.01948
1.01652
1.02133
1.0175
1.02272
1.01935
1.02394
1.01979
1.02415
1.01932
1.02361
1.01862
1.02267
1.01741
1.02275
1.01814
1.02425
1.01983
1.02642
1.02227
1.02909
1.02356
1.02996
1.02316
1.02781
1.01908
1.02466
1.01644
1.02366
1.01648
1.02521
1.01797
1.02827
1.02031
1.03055
1.02171
1.03288
1.02274
1.03292
1.02074
1.03046
1.0168
1.02778
1.01486
1.02546
1.01154
1.02439
1.0132
1.03122
1.01642
1.03164
1.00654
1.03351
0.980176
1.1602
1.04205
1.0324
1.03555
1.0237
1.02507
1.01525
1.01949
1.01295
1.02332
1.01452
1.02452
1.01446
1.02331
1.01392
1.02133
1.01421
1.02083
1.01404
1.02008
1.01504
1.01989
1.01568
1.02054
1.01672
1.02152
1.0184
1.02291
1.01924
1.02421
1.02004
1.02498
1.01981
1.02471
1.01836
1.02378
1.01794
1.02333
1.01774
1.02463
1.01965
1.02746
1.02191
1.02939
1.02342
1.03014
1.02203
1.02777
1.01914
1.02498
1.01584
1.02473
1.0159
1.02634
1.01785
1.02847
1.01975
1.03099
1.0219
1.03394
1.02327
1.0338
1.02084
1.03133
1.01637
1.02834
1.01399
1.02544
1.01133
1.02355
1.0122
1.02988
1.01496
1.03202
1.00388
1.0331
0.98469
1.16182
1.02568
1.0426
1.02703
1.02064
1.01808
1.01186
1.01536
1.01415
1.01637
1.01783
1.01685
1.01926
1.01602
1.01826
1.01599
1.01847
1.01582
1.01818
1.01514
1.01824
1.01476
1.01858
1.01526
1.01948
1.01648
1.02133
1.01752
1.02281
1.01931
1.02399
1.01984
1.02414
1.01951
1.02374
1.01871
1.02274
1.01743
1.02272
1.01821
1.02423
1.0198
1.02653
1.02225
1.02914
1.02354
1.02995
1.02324
1.02785
1.01915
1.02471
1.01645
1.02356
1.01639
1.02512
1.01787
1.02823
1.02013
1.03045
1.02165
1.03268
1.02264
1.03279
1.02067
1.03035
1.01679
1.0276
1.0148
1.02521
1.01148
1.02413
1.01296
1.03071
1.01639
1.03144
1.00584
1.03295
0.983236
1.15789
1.042
1.03273
1.03535
1.02332
1.02509
1.01546
1.01996
1.01314
1.0238
1.01514
1.02508
1.01545
1.02404
1.01453
1.02194
1.0151
1.02128
1.01414
1.01997
1.01424
1.01964
1.01535
1.01998
1.01581
1.02059
1.01664
1.02145
1.01845
1.02303
1.01942
1.02417
1.02021
1.02512
1.01985
1.02477
1.01848
1.0238
1.01807
1.02344
1.0178
1.02468
1.01962
1.02739
1.02197
1.02936
1.0235
1.03016
1.02209
1.02768
1.01923
1.02493
1.01576
1.02461
1.01581
1.02614
1.01779
1.02838
1.01966
1.03084
1.02184
1.03367
1.02325
1.03357
1.02073
1.03109
1.01629
1.02801
1.01392
1.02522
1.01113
1.02331
1.01195
1.02967
1.01484
1.03164
1.00364
1.03203
0.984817
1.15935
1.02598
1.04246
1.02737
1.02054
1.01858
1.01206
1.01596
1.01437
1.01684
1.01826
1.01697
1.01972
1.01677
1.01901
1.01722
1.01876
1.01619
1.01863
1.01556
1.01871
1.01538
1.01845
1.01471
1.01871
1.01522
1.01954
1.01627
1.02109
1.01757
1.02272
1.01931
1.0241
1.01993
1.02422
1.01953
1.02377
1.01876
1.02284
1.01746
1.02277
1.01822
1.02421
1.01978
1.02652
1.02225
1.02905
1.02357
1.02998
1.02332
1.02802
1.01921
1.02474
1.01637
1.02357
1.01632
1.02493
1.01769
1.02817
1.02003
1.03033
1.02158
1.0326
1.02257
1.03272
1.02062
1.03024
1.01668
1.02741
1.0146
1.02508
1.01139
1.02386
1.0126
1.03042
1.01623
1.03112
1.00597
1.03254
0.98364
1.15564
1.0416
1.03318
1.03531
1.02312
1.02528
1.01566
1.0205
1.01335
1.0243
1.01585
1.02574
1.01595
1.02419
1.01575
1.02243
1.01599
1.02187
1.01535
1.02042
1.0152
1.01957
1.01455
1.01917
1.01523
1.01998
1.01583
1.02045
1.01669
1.0217
1.01835
1.02316
1.0194
1.02425
1.02009
1.02513
1.01989
1.02481
1.01858
1.02375
1.01813
1.02344
1.01782
1.0247
1.0196
1.02735
1.02194
1.0294
1.02341
1.03014
1.02218
1.02772
1.01926
1.02492
1.01582
1.02455
1.01573
1.02615
1.01773
1.02824
1.01956
1.0306
1.02173
1.03347
1.02308
1.03334
1.02061
1.03081
1.01623
1.02767
1.01385
1.025
1.01095
1.02313
1.01158
1.02938
1.01476
1.03127
1.00389
1.03114
0.985137
1.15701
1.02654
1.04222
1.02778
1.02071
1.01908
1.01234
1.01655
1.0146
1.0172
1.01846
1.01747
1.01973
1.01743
1.02026
1.01752
1.01961
1.01682
1.01895
1.01599
1.0192
1.01578
1.01879
1.01544
1.01853
1.01479
1.01867
1.0155
1.01965
1.01639
1.02118
1.01749
1.02265
1.01924
1.0241
1.01999
1.02421
1.01965
1.02378
1.0188
1.02294
1.01754
1.02278
1.01821
1.02419
1.01984
1.02656
1.02224
1.0291
1.02367
1.02997
1.02339
1.02807
1.01928
1.02478
1.01639
1.02351
1.01628
1.02486
1.01764
1.02807
1.01996
1.03011
1.02149
1.03244
1.02253
1.03256
1.02062
1.03008
1.01658
1.02726
1.01441
1.02494
1.01129
1.02366
1.01235
1.02987
1.01611
1.03082
1.00617
1.03162
0.983877
1.15276
1.04112
1.03349
1.03489
1.02298
1.02545
1.01594
1.02115
1.01358
1.02454
1.016
1.02545
1.0165
1.02385
1.01651
1.02298
1.01685
1.02245
1.01662
1.02127
1.01589
1.01991
1.01537
1.01966
1.01457
1.01942
1.01515
1.01993
1.01564
1.02052
1.01672
1.02154
1.01846
1.02305
1.01936
1.02428
1.02014
1.02519
1.01994
1.02486
1.01861
1.02379
1.0181
1.02342
1.01787
1.02469
1.01958
1.02724
1.022
1.02936
1.02331
1.0302
1.02224
1.02772
1.0193
1.02492
1.01581
1.02448
1.01566
1.02599
1.01767
1.0281
1.01959
1.0305
1.02157
1.03327
1.02293
1.03304
1.02052
1.0305
1.01617
1.02739
1.01374
1.02482
1.01078
1.02288
1.01124
1.0291
1.01464
1.03097
1.00422
1.03033
0.984716
1.15208
1.02702
1.04199
1.02811
1.02085
1.01958
1.01267
1.01707
1.01475
1.01721
1.01819
1.01743
1.01985
1.01826
1.02021
1.01765
1.01993
1.01762
1.01978
1.017
1.01957
1.01666
1.01943
1.01582
1.01863
1.01564
1.01852
1.01526
1.01869
1.01534
1.0196
1.01638
1.02119
1.01747
1.02287
1.01925
1.02411
1.02007
1.02431
1.01975
1.02386
1.01887
1.02296
1.01763
1.02285
1.01821
1.02425
1.01984
1.02664
1.02221
1.0291
1.02374
1.02993
1.02336
1.02803
1.01936
1.02473
1.01639
1.02346
1.01619
1.02487
1.01754
1.02797
1.01985
1.02999
1.0215
1.03223
1.02245
1.03243
1.02064
1.02977
1.01651
1.02708
1.01428
1.0248
1.01119
1.02348
1.01204
1.02946
1.01592
1.03053
1.00629
1.0314
0.985519
1.14964
1.04072
1.03399
1.03472
1.02317
1.02575
1.01629
1.02178
1.01365
1.02435
1.01581
1.02515
1.01642
1.02411
1.01668
1.02353
1.01745
1.02314
1.01738
1.02149
1.01668
1.02105
1.01586
1.01995
1.01548
1.01946
1.01472
1.01936
1.01493
1.01986
1.01564
1.02038
1.01675
1.02154
1.01838
1.02303
1.01937
1.02427
1.02009
1.02518
1.01992
1.02492
1.01873
1.02388
1.01814
1.02347
1.0179
1.02467
1.01952
1.02712
1.02201
1.02936
1.02339
1.0302
1.02239
1.02782
1.01934
1.02495
1.01576
1.02437
1.01563
1.02585
1.0176
1.02796
1.01954
1.03031
1.02147
1.03311
1.0229
1.03284
1.02052
1.03037
1.01604
1.02711
1.01358
1.0246
1.0106
1.02262
1.01095
1.02878
1.01452
1.03068
1.00399
1.02969
0.985843
1.14996
1.02741
1.04202
1.02871
1.02098
1.02016
1.0131
1.01747
1.01476
1.01702
1.01792
1.01751
1.01988