/*--------------------------------*- C++ -*----------------------------------*\
| =========                 |                                                 |
| \\      /  F ield         | OpenFOAM: The Open Source CFD Toolbox           |
|  \\    /   O peration     | Version:  2206                                  |
|   \\  /    A nd           | Website:  www.openfoam.com                      |
|    \\/     M anipulation  |                                                 |
\*---------------------------------------------------------------------------*/
FoamFile
{
    version     2.0;
    format      ascii;
    arch        "LSB;label=32;scalar=64";
    class       volScalarField;
    location    "180";
    object      rhoPrime2Mean;
}
// * * * * * * * * * * * * * * * * * * * * * * * * * * * * * * * * * * * * * //

dimensions      [2 -6 0 0 0 0 0];

internalField   nonuniform List<scalar> 
93840
(
0.0206336
0.00624052
0.0562491
0.000302242
0.00951839
0.0663605
0.00288569
0.00312491
0.00504886
0.0505801
0.000183331
0.00357725
0.00472018
0.00206446
0.0485225
3.72088e-05
0.0033665
0.00206896
0.000426561
0.00573852
0.0713031
0.00014406
0.00207482
0.00409343
0.008145
0.00185737
0.0122284
0.0896349
0.000101638
0.00186436
0.0015941
0.000805139
0.0029525
0.0017078
0.0139858
0.120971
0.00015403
0.00124924
0.00255189
0.00163703
0.00192732
0.00739594
0.00197275
0.0122376
0.111642
0.000130896
0.000730731
0.00136861
0.00114983
0.00127858
0.00191976
0.00380036
0.00163226
0.0118454
0.142777
0.000128369
0.000691771
0.00134171
0.000972663
0.00204041
0.00372277
0.00288535
0.00321937
0.00288294
0.0124203
0.116248
0.00010107
0.000845004
0.00106485
0.000918518
0.00148743
0.00136315
0.00243257
0.0015389
0.00142685
0.00255433
0.0122513
0.13268
0.000103302
0.000563633
0.00130253
0.000864158
0.00113094
0.00301945
0.0012358
0.00213613
0.00142974
0.00271817
0.00372877
0.0119231
0.116851
0.000109804
0.000650591
0.00117799
0.000842515
0.00126653
0.000899703
0.00169842
0.00128853
0.000723091
0.00178292
0.00130384
0.00187469
0.0120577
0.134642
7.75196e-05
0.000402583
0.00136464
0.00100246
0.000912302
0.00228124
0.000662419
0.00216374
0.000956269
0.00177782
0.00165846
0.00227326
0.00352884
0.0116642
0.115659
9.96807e-05
0.000558375
0.00126337
0.000706309
0.0010841
0.000728582
0.00158892
0.000692371
0.000694577
0.00121963
0.000652503
0.0017105
0.00156145
0.0021609
0.011678
0.134958
7.57775e-05
0.000360108
0.00138645
0.00111397
0.00075509
0.001958
0.000350103
0.00156773
0.00066757
0.00162164
0.00106126
0.00166955
0.00177851
0.00212711
0.00321606
0.0112835
0.115537
0.000117031
0.000479417
0.00137866
0.000677645
0.00101116
0.000595272
0.00134882
0.000419344
0.00085174
0.000629916
0.000533815
0.00115003
0.000687283
0.00171169
0.00165192
0.00220944
0.011217
0.134794
9.45671e-05
0.000370885
0.00142129
0.00112297
0.000580976
0.00190293
0.000244448
0.00133425
0.000397586
0.00129889
0.000679279
0.00150939
0.00102402
0.00163346
0.00173478
0.00206958
0.00306818
0.0108737
0.115051
0.000141788
0.000428746
0.00142004
0.00065821
0.00091086
0.000560758
0.00115581
0.000255151
0.000837434
0.000389149
0.000702652
0.000617764
0.000488696
0.0011541
0.000738211
0.00174073
0.00159642
0.0022661
0.0107271
0.133439
0.000140736
0.000455421
0.00140912
0.00116675
0.000503384
0.00173781
0.000173851
0.00133018
0.000308337
0.00124572
0.000432933
0.00111926
0.000700345
0.00129537
0.00104487
0.00155683
0.00165493
0.00185961
0.00299264
0.0104572
0.114649
0.000167224
0.000413271
0.00135023
0.000699539
0.000728726
0.000476023
0.00101483
0.000181318
0.000713654
0.000238959
0.000677529
0.000384299
0.000562208
0.000606914
0.000476967
0.0010922
0.000688325
0.00172579
0.00154035
0.00229923
0.0102601
0.131046
0.000226428
0.000519361
0.00140229
0.00111316
0.000405257
0.00163599
0.000152477
0.00117916
0.000256274
0.0013414
0.000312798
0.00103129
0.000451267
0.0010383
0.000744201
0.00120312
0.000925555
0.00146632
0.00167641
0.00166751
0.00292904
0.0100845
0.11458
0.00017553
0.000456346
0.00134162
0.000695748
0.000629314
0.0004359
0.000794769
0.000193618
0.000589997
0.000184323
0.000569147
0.000228276
0.00050434
0.000381234
0.000506155
0.00058699
0.000470169
0.00109106
0.000637121
0.00169466
0.00145202
0.00231476
0.00979097
0.127927
0.000253002
0.000638702
0.00144082
0.00105354
0.000325033
0.00151069
0.000155647
0.000914162
0.000150506
0.00112718
0.000192453
0.000838316
0.000341192
0.000954836
0.000424409
0.000715524
0.000640849
0.000893385
0.000878616
0.00125883
0.0016864
0.00156335
0.00285344
0.00940161
0.126124
0.000170573
0.000500539
0.00121001
0.000654551
0.000600636
0.000354774
0.000668435
0.000220465
0.000471731
0.000201732
0.00041071
0.000167541
0.000383141
0.000235869
0.000455872
0.000381104
0.000459151
0.000602007
0.000504208
0.00104338
0.000649714
0.00171234
0.00140799
0.00232407
0.00859094
0.131044
0.000260774
0.00064619
0.00154595
0.00107132
0.000263034
0.00141512
0.000137102
0.000663774
0.000107706
0.00080951
0.000139475
0.000638884
0.000189239
0.000766715
0.000296375
0.000701117
0.000419606
0.000697404
0.000591375
0.000687101
0.000868288
0.00119063
0.00169786
0.00148383
0.00281334
0.0100705
0.122677
0.000169097
0.000551347
0.00113861
0.000635282
0.000522814
0.000350214
0.000570653
0.000228654
0.000407137
0.000208399
0.000393692
0.000184109
0.000348852
0.000166937
0.000387817
0.000240204
0.000461855
0.000396115
0.000435412
0.000595037
0.000591728
0.00105742
0.000636605
0.00171605
0.00133443
0.00258254
0.00932139
0.123052
0.000246026
0.000608736
0.00158363
0.000933265
0.000268688
0.0012499
0.000109347
0.000549961
8.56032e-05
0.000618344
9.8501e-05
0.000603254
0.000135636
0.000599572
0.00018997
0.000622283
0.000280848
0.000644979
0.000408347
0.000689074
0.00059061
0.00066591
0.000903546
0.00115249
0.00171035
0.0013386
0.00291632
0.00913853
0.117459
0.00017355
0.000550362
0.00104344
0.000652713
0.000489827
0.000304007
0.000581482
0.000246666
0.000321797
0.000205128
0.000356623
0.000200182
0.000357578
0.000182524
0.000359757
0.00018344
0.000397659
0.000246879
0.00046426
0.00041706
0.000432373
0.00061221
0.000564873
0.00111547
0.000673332
0.00172265
0.00133484
0.00232692
0.00854453
0.119475
0.000221456
0.000576214
0.00162975
0.00081148
0.000296123
0.00121557
9.86731e-05
0.000425513
9.7566e-05
0.000472463
8.37875e-05
0.000509753
9.82883e-05
0.000516103
0.000121905
0.000535865
0.000164298
0.000588365
0.000237271
0.000529159
0.000374622
0.000653757
0.000594827
0.000699036
0.000926188
0.0010296
0.00171086
0.00128056
0.00273031
0.00868472
0.114675
0.000189506
0.000482972
0.000922292
0.000691711
0.000427581
0.000276002
0.000503109
0.000204775
0.000308817
0.000210494
0.000315393
0.000196187
0.000352208
0.000188975
0.000351325
0.00016562
0.000347579
0.000191226
0.000394794
0.00024042
0.000437757
0.000427309
0.000433674
0.000639345
0.000571021
0.0011364
0.000797471
0.00168233
0.00133433
0.00234288
0.00806996
0.116893
0.00020651
0.000555609
0.00166226
0.000734668
0.000316833
0.00107745
0.000109557
0.000372348
9.86946e-05
0.000333648
0.000104417
0.000364311
0.000103273
0.000440194
9.84132e-05
0.000463035
0.000101236
0.000481072
0.000149516
0.000539213
0.000222344
0.000576611
0.000374384
0.00062477
0.000603052
0.000707511
0.000944702
0.000988779
0.001714
0.00124913
0.00265575
0.00799794
0.112735
0.000202435
0.000472967
0.000835132
0.000740822
0.000392205
0.000272155
0.000407865
0.000150869
0.000262697
0.00018379
0.000262596
0.000181637
0.000288288
0.000157867
0.000306874
0.000159772
0.000312457
0.000148682
0.000346568
0.000176922
0.000391101
0.000237896
0.000423066
0.00043483
0.000426331
0.000641712
0.000580709
0.00115612
0.000788641
0.0016682
0.00133969
0.00230267
0.00749986
0.114803
0.00019513
0.000488708
0.00163585
0.00069357
0.000308718
0.00100542
0.000109379
0.000341706
0.000101126
0.000269706
9.70121e-05
0.000300749
9.98249e-05
0.000351645
0.000114578
0.000393822
0.000102378
0.000404018
9.6781e-05
0.000446613
0.000146998
0.000513676
0.000214997
0.000550629
0.000356019
0.000634192
0.000601829
0.000714654
0.000942967
0.00101403
0.00173319
0.00123757
0.00255268
0.00847114
0.111004
0.000202589
0.000496465
0.000711977
0.000765533
0.000356887
0.000237465
0.000317249
0.000149498
0.000174437
0.00015946
0.000244428
0.000155376
0.000237469
0.000143915
0.000245314
0.000144233
0.000281447
0.000135092
0.000306947
0.000135739
0.000333268
0.000165424
0.000390668
0.000231557
0.000419976
0.00042014
0.000404108
0.000644056
0.000586829
0.00116605
0.000779232
0.00166923
0.00125595
0.00231289
0.00789276
0.113036
0.000187799
0.000435471
0.00160931
0.000637673
0.000305919
0.000931864
0.000104731
0.000277457
0.00010876
0.000248706
0.000131186
0.00023337
9.69007e-05
0.000266205
9.27056e-05
0.000289378
9.77563e-05
0.000303982
0.000102305
0.000356962
0.000103276
0.000407978
0.000146011
0.000452085
0.000214188
0.000527373
0.000326925
0.000634235
0.000596922
0.000704622
0.000936686
0.00101924
0.00173761
0.00125779
0.00250356
0.00780556
0.109187
0.000199896
0.000538754
0.000634402
0.000846038
0.00029482
0.00023761
0.000237275
0.000177648
0.000131417
0.000181702
0.000176799
0.000158764
0.000215909
0.000134359
0.000194523
0.000125013
0.0002022
0.00010827
0.000261806
0.000126468
0.000285433
0.000124403
0.000328498
0.000156733
0.000402315
0.000219208
0.000406235
0.000417972
0.000454912
0.000628482
0.000582005
0.00115597
0.00077254
0.00165893
0.001262
0.00224752
0.00729347
0.111112
0.000196814
0.000380783
0.001549
0.000550675
0.000348986
0.000794328
0.000118342
0.00022181
0.000115458
0.000232427
0.000138605
0.000216292
0.000116988
0.000201131
9.88288e-05
0.000231548
8.40975e-05
0.000224391
9.59367e-05
0.000242323
0.000100373
0.000320436
0.000101154
0.000392944
0.000139586
0.000435247
0.000198556
0.000522499
0.000329964
0.000620611
0.000573428
0.000719264
0.000951797
0.0010118
0.00172737
0.0011642
0.00240886
0.00726924
0.107599
0.000197115
0.000592511
0.000581384
0.000820537
0.000289621
0.000233694
0.000184806
0.000193321
0.000108448
0.000211836
0.000161403
0.000162065
0.000151088
0.000139809
0.000200093
0.000125522
0.000168752
0.000119014
0.000176083
9.56005e-05
0.000227321
0.000105789
0.000277316
0.000122025
0.000324606
0.000157055
0.000383769
0.000220643
0.000406935
0.000411396
0.000457355
0.000642375
0.000582846
0.0011701
0.000799017
0.00165456
0.00121553
0.00223393
0.00772144
0.109415
0.000214832
0.000351301
0.00149944
0.000509868
0.000367129
0.00070333
0.000120575
0.000205715
0.000128546
0.000214685
0.000117804
0.000194648
0.000124382
0.000190712
0.000102461
0.000163955
8.92614e-05
0.000205253
7.79382e-05
0.000175957
8.88765e-05
0.000235427
8.47092e-05
0.000303348
9.8363e-05
0.000363506
0.000140365
0.000417126
0.000194916
0.00052346
0.000326313
0.000614437
0.000578629
0.000719595
0.000976426
0.00102693
0.00174217
0.00113402
0.00244694
0.00769483
0.105847
0.000192597
0.000677447
0.000485574
0.000829817
0.00026335
0.000227206
0.000147257
0.000215099
0.000100261
0.00020742
0.000119579
0.000161279
0.000106626
0.000173755
0.000141052
0.000126871
0.000185529
0.000113964
0.000153312
0.000109458
0.000163808
9.72264e-05
0.000209025
0.000103761
0.000259113
0.000116019
0.000308526
0.000147102
0.000373327
0.000214
0.000417523
0.000412434
0.000459832
0.000646661
0.000598935
0.00116825
0.000812487
0.00164454
0.00132806
0.00227719
0.0070487
0.107733
0.000240832
0.000305229
0.00151024
0.000446876
0.000384301
0.000632251
0.000115412
0.000188029
0.000142042
0.000186876
0.00013778
0.000149822
0.000116002
0.000153658
8.77037e-05
0.000164533
8.84904e-05
0.000137351
8.3725e-05
0.000173539
7.32438e-05
0.000170619
8.89921e-05
0.000214089
8.07825e-05
0.000266338
0.000100939
0.000342728
0.000139416
0.000401686
0.000193294
0.000511977
0.000326875
0.000605111
0.000585138
0.000729763
0.000994036
0.00105106
0.00175286
0.00115484
0.00233601
0.00706907
0.103762
0.000177669
0.000772689
0.000393349
0.000794998
0.000230334
0.000245819
0.000129309
0.000208094
9.55573e-05
0.000240134
8.96082e-05
0.000190197
9.5562e-05
0.000146554
0.000101374
0.000158405
0.000130516
0.000117848
0.000153781
0.000105648
0.000147073
0.000110222
0.000155792
9.9111e-05
0.000192411
9.7523e-05
0.000259486
0.000113346
0.000300554
0.000142449
0.000371419
0.00021349
0.000420682
0.000405377
0.000474154
0.00064687
0.00060337
0.00115576
0.000833344
0.00163706
0.00127228
0.00219145
0.00650984
0.105466
0.000271565
0.000270613
0.00150062
0.000391103
0.000394609
0.000537071
0.000111635
0.000170107
0.000163433
0.000140205
0.000162405
0.000144125
0.000127543
0.00011172
0.00010145
0.000147084
8.70319e-05
0.000133264
7.17533e-05
0.000114516
8.09869e-05
0.000150339
6.85476e-05
0.000157149
8.79345e-05
0.000193774
7.65777e-05
0.000248431
0.000105984
0.000324757
0.000142911
0.000392347
0.00019566
0.000506538
0.000320848
0.000593627
0.000585094
0.000750573
0.000999712
0.00107442
0.00176192
0.00109756
0.00224481
0.00654891
0.101646
0.000165209
0.000887651
0.000303175
0.000790292
0.000194975
0.000279165
0.00010356
0.000198874
9.74819e-05
0.000242924
9.24896e-05
0.000216258
8.12518e-05
0.000166826
8.44951e-05
0.000148669
9.18236e-05
0.000137438
0.000108464
0.000107844
0.000136962
9.45846e-05
0.000137719
0.000106635
0.000151037
9.62417e-05
0.00018797
0.00010069
0.000255229
0.000112711
0.000300918
0.000133741
0.00037103
0.000215916
0.000424032
0.000417297
0.000485078
0.000651903
0.000613058
0.00114874
0.000856569
0.00163623
0.00127
0.00217059
0.00680166
0.103441
0.000288015
0.000230398
0.00148733
0.000319229
0.000424914
0.000433271
0.000126998
0.000148777
0.000176376
0.000111801
0.00019617
0.000122575
0.000144065
0.000129551
0.000108073
9.4845e-05
0.000116225
0.000125807
8.10219e-05
0.000113647
7.01835e-05
0.000108365
7.95474e-05
0.000136541
6.88262e-05
0.000148222
8.8382e-05
0.000186436
7.84407e-05
0.000228399
0.00010746
0.000316016
0.000132719
0.000385133
0.00019914
0.000492035
0.000326717
0.000586452
0.000587494
0.000758021
0.00101165
0.00109333
0.00177851
0.0010845
0.00229789
0.00685683
0.0997167
0.000155492
0.000927317
0.00024301
0.000776526
0.000176689
0.000312779
9.35094e-05
0.000194855
0.000107489
0.00022117
9.10979e-05
0.000203357
7.12254e-05
0.00018659
6.57378e-05
0.000155923
7.49445e-05
0.000144973
8.36897e-05
0.000119449
9.82788e-05
0.000104301
0.000126783
9.2572e-05
0.000125065
0.000100905
0.000148981
9.44234e-05
0.000183579
9.23921e-05
0.000244353
0.000114325
0.000308792
0.000149692
0.000373038
0.000215868
0.000417835
0.000412787
0.000495597
0.000654253
0.000627315
0.00114539
0.000884113
0.00163369
0.00137852
0.00222226
0.00628141
0.101527
0.000296638
0.000195372
0.00146157
0.000274995
0.000436832
0.000349706
0.000122357
0.000134056
0.000170964
0.000103251
0.000173264
0.0001021
0.000138444
0.000100482
0.000119384
9.81452e-05
9.8246e-05
8.29836e-05
8.75521e-05
0.000106694
7.6502e-05
9.42681e-05
6.88078e-05
0.000101649
8.33536e-05
0.000127825
7.43304e-05
0.000140333
7.5939e-05
0.000172677
7.61536e-05
0.00024249
0.000109917
0.000310945
0.000136432
0.000377364
0.000198689
0.000494952
0.000334154
0.00058256
0.000593033
0.000764461
0.000991791
0.00107409
0.00178495
0.00110589
0.00223873
0.00639117
0.0979021
0.000149054
0.000890783
0.000219869
0.000736201
0.000160255
0.000330883
8.96493e-05
0.000204934
0.00014644
0.000202667
9.79241e-05
0.000185337
7.13459e-05
0.000177429
6.95603e-05
0.000159773
6.14757e-05
0.000148838
6.97786e-05
0.000129988
8.18451e-05
0.000102906
8.54224e-05
9.52897e-05
0.00011011
9.69549e-05
0.000119653
0.000100281
0.000146415
9.48197e-05
0.000172389
7.86976e-05
0.000231482
0.000112966
0.000308789
0.000152223
0.000382707
0.000221086
0.000421978
0.000410992
0.000502356
0.000652147
0.000646742
0.00111473
0.000904612
0.00163906
0.00137006
0.00219948
0.00588702
0.0996608
0.000317328
0.000172749
0.00140536
0.00023188
0.000484353
0.000294848
0.000118363
0.000120567
0.000147578
0.000118689
0.000170009
9.51454e-05
0.000141588
8.6984e-05
0.000131596
6.86078e-05
9.0883e-05
8.74998e-05
9.32162e-05
7.9567e-05
7.47675e-05
8.83545e-05
6.55505e-05
8.77761e-05
6.6873e-05
9.24518e-05
8.00699e-05
0.000123333
7.74686e-05
0.000129359
7.87169e-05
0.000172611
6.54051e-05
0.000227294
0.000114249
0.000305015
0.000138554
0.000372511
0.000198572
0.000481809
0.000335367
0.000585197
0.000599172
0.000765519
0.000962599
0.00106332
0.00179604
0.00107694
0.00221054
0.00665034
0.0960048
0.000150086
0.000875475
0.0001968
0.000704778
0.000139319
0.000397565
0.000101177
0.000224563
0.000178658
0.00019857
0.000123507
0.000164027
7.94546e-05
0.000154571
6.53303e-05
0.000160016
6.8597e-05
0.000157212
5.39311e-05
0.000145074
6.86443e-05
0.000112163
7.23625e-05
9.71621e-05
7.49934e-05
8.91182e-05
0.000109974
9.20007e-05
0.000117658
9.28282e-05
0.000144528
9.30354e-05
0.000162371
7.86868e-05
0.000229456
0.000108218
0.000308007
0.000150784
0.000384542
0.000226556
0.000420907
0.000388316
0.000506214
0.000648639
0.000642061
0.00108549
0.000906077
0.00164104
0.00139073
0.00226977
0.00604354
0.0977829
0.000339748
0.000160648
0.00131127
0.000215089
0.000520422
0.000270498
0.000105639
0.00011684
0.000122005
0.000142201
0.000151803
0.000116164
0.000135621
8.21534e-05
0.00013981
7.73288e-05
0.000115752
6.93634e-05
8.92821e-05
7.236e-05
8.796e-05
7.25711e-05
6.86963e-05
7.23218e-05
5.85436e-05
8.12825e-05
6.45126e-05
8.7216e-05
7.78162e-05
0.000114632
8.10643e-05
0.000122497
8.08014e-05
0.000172779
7.55851e-05
0.000219237
0.000117555
0.000298003
0.000145002
0.000371605
0.00019877
0.000489779
0.000317594
0.000585348
0.000584633
0.000751144
0.000945216
0.00107231
0.00180184
0.00113848
0.00218755
0.00608361
0.094127
0.000146379
0.000827136
0.000181886
0.000711084
0.000114107
0.000423951
0.000139088
0.000220571
0.000201547
0.000186647
0.000144941
0.000163432
0.000100519
0.000142821
6.48522e-05
0.000142024
5.42971e-05
0.000151909
6.36943e-05
0.00014395
5.50029e-05
0.000132838
6.75936e-05
8.97725e-05
7.30373e-05
8.93125e-05
7.88635e-05
8.46219e-05
9.96562e-05
8.64641e-05
0.000117402
8.90432e-05
0.000144345
9.12114e-05
0.000165526
8.24794e-05
0.000232795
0.000109097
0.000310464
0.000152644
0.000392558
0.000227177
0.000427174
0.000406832
0.000507004
0.000603674
0.000634504
0.00108023
0.000917731
0.00164357
0.00143548
0.00218371
0.00558344
0.0959483
0.000357591
0.000143042
0.00122961
0.000198785
0.000556893
0.000232741
0.000102976
0.000122459
9.68746e-05
0.000135949
0.000119071
0.000135681
9.78555e-05
9.38018e-05
0.000124179
7.80026e-05
0.000121855
7.04259e-05
0.000107155
6.18695e-05
8.70435e-05
6.85813e-05
8.47162e-05
6.62196e-05
6.01465e-05
6.6716e-05
5.46533e-05
7.51645e-05
6.29902e-05
8.26404e-05
7.53818e-05
0.000109388
8.0601e-05
0.000122938
8.23803e-05
0.000170851
7.82864e-05
0.000214661
0.000117455
0.000294557
0.000149063
0.000359255
0.000199914
0.00048791
0.000326367
0.000586628
0.000544427
0.00075883
0.000946742
0.00107628
0.00181
0.00108296
0.002119
0.00580011
0.0922749
0.00013818
0.000776171
0.000171884
0.000666386
0.000125115
0.000376781
0.000164955
0.000205589
0.000207376
0.000172919
0.000154309
0.000157319
0.000119951
0.000141004
8.79429e-05
0.000124952
5.15903e-05
0.000132968
5.27221e-05
0.000130313
5.99951e-05
0.000123587
5.62876e-05
0.000117056
6.77426e-05
8.85915e-05
6.79238e-05
8.00725e-05
7.59877e-05
7.85214e-05
9.40889e-05
8.4045e-05
0.000114866
8.91114e-05
0.000143207
9.13019e-05
0.000168153
8.29689e-05
0.000235145
0.000109511
0.000310778
0.000155608
0.000390487
0.000226081
0.000433136
0.000400254
0.000509815
0.000619668
0.000637434
0.00107571
0.000932957
0.00163967
0.00140866
0.00218139
0.00531639
0.0939901
0.000363771
0.000140631
0.00114438
0.000181147
0.000590694
0.000239544
9.9506e-05
0.000122958
9.10864e-05
0.000130277
0.000106594
0.000125917
8.31454e-05
0.000101855
9.0695e-05
9.02575e-05
8.48289e-05
6.77755e-05
0.000109907
6.08887e-05
9.96147e-05
5.50499e-05
8.18888e-05
6.20782e-05
9.07946e-05
5.93288e-05
5.85757e-05
6.97177e-05
5.19898e-05
7.13088e-05
6.47323e-05
8.1638e-05
7.50956e-05
0.000107482
8.23161e-05
0.000127855
8.5637e-05
0.000168764
8.20155e-05
0.000211044
0.000119834
0.000291601
0.000152433
0.000363668
0.00020527
0.000484531
0.000327944
0.000577852
0.000540558
0.000764709
0.000949303
0.00108368
0.0018123
0.0011402
0.00208927
0.00545357
0.0903322
0.000129656
0.000735273
0.000173948
0.000669228
0.000115262
0.000376902
0.000196751
0.000210763
0.00020955
0.000181635
0.000153717
0.000153147
0.000126736
0.000125525
0.000108311
0.000112094
7.56247e-05
0.000119601
4.72646e-05
0.000124171
4.88243e-05
0.000105417
5.45573e-05
0.000120323
5.60234e-05
8.70084e-05
6.4543e-05
8.20913e-05
6.58321e-05
7.52365e-05
7.75081e-05
7.11159e-05
8.93012e-05
8.11939e-05
0.000116862
8.99823e-05
0.000147204
8.94991e-05
0.000172566
8.7429e-05
0.000241315
0.000111298
0.000313305
0.000159698
0.000393579
0.000224407
0.000438778
0.000402256
0.000516208
0.00061974
0.000641375
0.00106648
0.000946213
0.00163161
0.00133985
0.00217662
0.00499449
0.0920332
0.00037287
0.000152287
0.00104962
0.000172951
0.00058011
0.000233097
9.90151e-05
0.000124336
8.72649e-05
0.000120055
0.000104943
0.000122758
9.06656e-05
0.000106764
7.36069e-05
8.79933e-05
7.73146e-05
7.06607e-05
7.94384e-05
5.68582e-05
0.000104269
5.61368e-05
0.000101597
4.42121e-05
7.82334e-05
5.72911e-05
9.08763e-05
5.4808e-05
5.71536e-05
6.79837e-05
5.01375e-05
6.72716e-05
6.64531e-05
8.62231e-05
7.77001e-05
0.000107366
8.54013e-05
0.000126544
8.82663e-05
0.000167488
8.28085e-05
0.000209634
0.000121697
0.000291276
0.000157703
0.000364416
0.000203166
0.000483734
0.000336942
0.000561067
0.000547335
0.000771903
0.000960148
0.00109133
0.00181766
0.00111343
0.00208058
0.00542957
0.0883608
0.000122073
0.000702457
0.000157856
0.000680765
0.000119065
0.000351911
0.000199917
0.000204352
0.000219413
0.000177941
0.000142647
0.000165504
0.000126965
0.000124092
0.000104628
0.000106548
0.000100141
0.00010519
6.62378e-05
0.000103267
4.72021e-05
0.000113024
4.40726e-05
0.000104603
4.99437e-05
0.000104349
5.25967e-05
8.56967e-05
5.93813e-05
7.4565e-05
6.6294e-05
6.51019e-05
7.62604e-05
6.91486e-05
8.69093e-05
8.06405e-05
0.000120593
9.25311e-05
0.000149402
9.62967e-05
0.000177212
9.01063e-05
0.000243571
0.000113984
0.000312121
0.000165033
0.00039697
0.000231426
0.000441115
0.000401189
0.000535597
0.000620981
0.000638057
0.00106245
0.000962907
0.0016251
0.00134067
0.00220436
0.00500705
0.0900508
0.000388487
0.000147551
0.000913006
0.000172589
0.000518036
0.000211708
9.56277e-05
0.000117462
8.75982e-05
0.000110431
0.000119247
0.000107754
9.40214e-05
0.000106401
6.82822e-05
9.13013e-05
7.50129e-05
8.26216e-05
7.02267e-05
6.59924e-05
7.7257e-05
5.25947e-05
9.58089e-05
4.95346e-05
9.8399e-05
4.61983e-05
8.06211e-05
5.41212e-05
8.23165e-05
5.62796e-05
5.13826e-05
6.715e-05
5.09548e-05
6.50116e-05
6.63773e-05
8.74357e-05
7.87236e-05
0.000107972
8.81514e-05
0.000127589
9.20345e-05
0.000169738
8.52291e-05
0.000212942
0.000125287
0.0002913
0.00015944
0.000364278
0.00020749
0.000483786
0.000345326
0.000558302
0.000558801
0.000775664
0.000975384
0.00109411
0.00182432
0.00114404
0.00211298
0.00524878
0.0864608
0.000116911
0.000681747
0.000160685
0.000711375
0.00012844
0.000321077
0.000201772
0.000197897
0.000231298
0.000170859
0.000139253
0.000164512
0.000120444
0.000142479
0.00010242
0.000113758
0.000102077
0.000105815
8.93621e-05
9.37736e-05
6.35059e-05
9.84449e-05
4.48038e-05
0.000105567
4.22818e-05
0.000104398
4.9504e-05
9.87849e-05
5.00497e-05
8.45686e-05
5.96162e-05
6.94158e-05
6.67386e-05
6.01589e-05
7.62577e-05
6.57054e-05
8.54486e-05
8.00989e-05
0.000120532
9.4682e-05
0.000148615
0.000100085
0.000182654
8.9178e-05
0.000245077
0.00011903
0.000314094
0.000167741
0.000401122
0.000234652
0.000443604
0.000404332
0.000530576
0.00061838
0.000644642
0.00106204
0.000983323
0.00161272
0.00136282
0.00223203
0.00477448
0.0880444
0.000403789
0.000139589
0.000871067
0.000165082
0.000494765
0.000195072
0.000103998
0.000106226
9.89828e-05
0.000102085
0.000113344
0.000103075
0.000101302
9.87106e-05
7.80755e-05
9.71315e-05
7.12299e-05
8.34083e-05
6.88235e-05
7.5346e-05
6.92299e-05
6.15174e-05
7.4607e-05
4.78305e-05
8.96708e-05
4.45852e-05
9.31255e-05
4.28827e-05
7.90156e-05
4.94725e-05
8.09859e-05
5.42898e-05
5.1777e-05
6.4715e-05
5.0699e-05
6.34727e-05
6.63937e-05
8.89416e-05
8.00519e-05
0.000108646
9.10421e-05
0.00013257
9.26421e-05
0.000172699
9.29302e-05
0.00021537
0.000129488
0.000289292
0.000159934
0.000356639
0.000211634
0.000479123
0.000352889
0.000561666
0.000565819
0.000778023
0.000984718
0.00109741
0.00181479
0.0011456
0.00211165
0.00491156
0.0845842
0.000111135
0.000634313
0.000143522
0.000708974
0.000123194
0.000305489
0.00017994
0.000196006
0.00023859
0.000165134
0.000141589
0.00015388
0.00011369
0.000147259
0.000105195
0.00012248
9.18488e-05
0.000115575
9.60935e-05
9.62608e-05
8.13245e-05
8.79547e-05
5.88582e-05
9.00963e-05
4.21883e-05
0.000100093
4.00326e-05
0.000101406
4.67058e-05
9.42622e-05
5.07324e-05
8.4413e-05
5.90033e-05
6.70018e-05
6.69778e-05
5.87477e-05
7.60596e-05
6.41458e-05
8.53892e-05
8.00541e-05
0.000122303
9.75709e-05
0.000151223
0.00010115
0.000185323
9.11389e-05
0.000248052
0.000124405
0.000314856
0.000168258
0.000393742
0.000238304
0.000446239
0.000409266
0.000531839
0.000624185
0.000650714
0.00105463
0.000991448
0.00162045
0.00136162
0.00222163
0.00479017
0.0860296
0.000411561
0.000137214
0.000834492
0.000154331
0.000471234
0.000163567
0.00010648
0.000100091
0.000103928
9.77037e-05
0.000110816
0.00010489
0.00010124
0.000100305
7.17373e-05
8.79557e-05
7.21706e-05
8.20962e-05
6.14321e-05
7.57948e-05
6.4355e-05
6.84253e-05
6.62907e-05
6.00894e-05
6.88208e-05
4.70698e-05
7.72271e-05
4.33217e-05
9.19053e-05
4.19267e-05
8.00285e-05
4.78519e-05
7.44723e-05
5.20331e-05
5.17735e-05
6.32393e-05
4.94892e-05
6.31043e-05
6.30694e-05
9.27017e-05
8.05415e-05
0.000111652
9.26714e-05
0.000141436
9.60981e-05
0.000178588
9.69605e-05
0.000215909
0.000128101
0.00029277
0.000160911
0.000372273
0.000217354
0.000481946
0.000361631
0.000562811
0.000575357
0.000782412
0.000990381
0.00109034
0.00180704
0.00113948
0.00215554
0.0049924
0.0827225
0.000104692
0.000633786
0.000125081
0.000685556
0.000124489
0.000290222
0.000163357
0.000188583
0.000255747
0.000164212
0.000146298
0.000157829
0.000112605
0.000128903
9.27033e-05
0.000128787
9.4323e-05
0.00010621
9.02808e-05
0.000100252
9.36435e-05
9.16457e-05
7.09292e-05
8.65783e-05
5.74294e-05
9.12304e-05
3.96158e-05
9.96202e-05
3.91215e-05
9.93443e-05
4.52605e-05
9.24849e-05
5.09218e-05
8.23092e-05
5.90533e-05
6.29695e-05
6.75835e-05
5.53377e-05
7.60528e-05
6.32242e-05
8.79171e-05
7.9475e-05
0.000125023
9.87723e-05
0.000154962
0.000100345
0.000190832
9.36497e-05
0.0002516
0.000128309
0.00032028
0.000167875
0.000396362
0.00024037
0.000443865
0.000413537
0.000536945
0.000626038
0.000653829
0.00104061
0.00102447
0.00163108
0.00139534
0.0022841
0.00452526
0.0840255
0.000417085
0.000131619
0.000786564
0.000147059
0.000458666
0.000144041
0.000108927
0.0001011
0.000116138
0.00010029
0.000109632
9.32708e-05
9.37894e-05
7.95804e-05
9.39126e-05
8.68937e-05
6.31771e-05
8.63653e-05
6.88393e-05
6.92468e-05
5.74023e-05
6.7663e-05
6.24975e-05
6.26608e-05
6.28027e-05
5.46733e-05
6.78683e-05
4.42421e-05
7.47606e-05
4.19763e-05
9.19043e-05
4.08207e-05
8.12588e-05
4.28402e-05
7.34127e-05
5.17961e-05
5.28581e-05
6.3413e-05
5.08053e-05
6.28833e-05
6.32199e-05
9.26264e-05
8.07768e-05
0.000116613
9.46231e-05
0.000147006
9.98471e-05
0.000181829
9.96318e-05
0.000221025
0.000118968
0.000295204
0.000161698
0.000375559
0.000224078
0.000484178
0.000368256
0.000563628
0.000584235
0.000786835
0.000982953
0.00107022
0.00180822
0.00115101
0.00216189
0.00471357
0.0807608
9.69117e-05
0.000639521
0.000118877
0.000661617
0.000127697
0.000278181
0.000167086
0.000189705
0.000258236
0.00016769
0.000149674
0.000152959
0.000118008
0.000106054
0.000108673
0.000109606
8.34847e-05
0.000117203
8.14288e-05
9.66387e-05
9.13684e-05
9.05288e-05
8.56359e-05
8.53385e-05
7.11027e-05
8.21105e-05
5.41597e-05
8.74164e-05
3.74002e-05
9.67299e-05
3.81893e-05
0.000100601
4.35598e-05
8.9348e-05
5.01497e-05
8.17862e-05
5.80828e-05
6.05188e-05
6.65179e-05
5.66815e-05
7.41174e-05
6.25862e-05
9.04572e-05
8.08543e-05
0.00012881
0.000101533
0.000159216
0.000100995
0.000192296
9.59923e-05
0.000252477
0.000120333
0.000326247
0.000166641
0.000400532
0.000242665
0.000447488
0.000421298
0.000541913
0.000628951
0.000660505
0.00101726
0.00103042
0.00163204
0.00138418
0.00229325
0.00424165
0.0818942
0.000410686
0.000126141
0.000794558
0.000134587
0.000437258
0.000130844
0.000119253
0.000106312
0.000121346
0.000106489
0.000110362
9.6049e-05
8.69684e-05
7.9897e-05
9.14208e-05
7.43236e-05
8.0159e-05
7.68425e-05
5.57948e-05
7.76397e-05
7.59675e-05
6.62183e-05
5.73914e-05
6.32243e-05
5.96276e-05
6.04441e-05
6.22046e-05
5.2516e-05
6.73398e-05
4.2871e-05
7.50704e-05
4.11671e-05
9.02051e-05
3.76592e-05
8.03308e-05
4.10089e-05
7.19802e-05
5.18313e-05
5.23697e-05
6.20947e-05
4.91045e-05
6.37106e-05
6.35963e-05
9.26583e-05
8.14941e-05
0.000120809
9.56702e-05
0.000152635
0.000102614
0.000187792
0.000103222
0.000226507
0.000128008
0.000299317
0.000162989
0.000375013
0.000231313
0.000484376
0.000376782
0.000567484
0.000590871
0.000789871
0.000949256
0.00106943
0.0017983
0.00113063
0.00213409
0.00442273
0.078763
8.96831e-05
0.00063486
0.000119245
0.000647503
0.000130114
0.000283423
0.000172738
0.000186742
0.000268264
0.000172409
0.000165294
0.00014565
0.000134904
0.000122363
0.000105665
9.64583e-05
9.08351e-05
9.39094e-05
7.60884e-05
0.00010602
7.78885e-05
8.07455e-05
8.32261e-05
8.28569e-05
7.99086e-05
8.06934e-05
6.81077e-05
7.98377e-05
5.14009e-05
8.41519e-05
3.55822e-05
9.58874e-05
3.69334e-05
9.84152e-05
4.30692e-05
8.80054e-05
4.89288e-05
8.00866e-05
5.86557e-05
5.72352e-05
6.48182e-05
5.34548e-05
7.39812e-05
6.19139e-05
9.17756e-05
8.34183e-05
0.000132199
0.00010181
0.00016509
0.00010145
0.000200678
9.90313e-05
0.000256845
0.000118939
0.000329196
0.000165944
0.000406938
0.000245264
0.000454885
0.000429288
0.000547126
0.000631518
0.000668716
0.000995194
0.00103302
0.00162648
0.00139321
0.00227844
0.00397392
0.0798486
0.000406102
0.000122158
0.000754221
0.000123169
0.000410723
0.000121713
0.000127241
0.000116392
0.000120532
0.000118394
0.000100615