/*--------------------------------*- C++ -*----------------------------------*\
| =========                 |                                                 |
| \\      /  F ield         | OpenFOAM: The Open Source CFD Toolbox           |
|  \\    /   O peration     | Version:  2206                                  |
|   \\  /    A nd           | Website:  www.openfoam.com                      |
|    \\/     M anipulation  |                                                 |
\*---------------------------------------------------------------------------*/
FoamFile
{
    version     2.0;
    format      ascii;
    arch        "LSB;label=32;scalar=64";
    class       volVectorField;
    location    "180";
    object      rhoUMean;
}
// * * * * * * * * * * * * * * * * * * * * * * * * * * * * * * * * * * * * * //

dimensions      [1 -2 -1 0 0 0 0];

internalField   nonuniform List<vector> 
93840
(
(1.50447 -1.5932 1.60363e-17)
(0.502383 0.228152 6.07632e-18)
(1.28326 -1.47185 1.41559e-17)
(0.886778 -0.438562 -1.93012e-18)
(0.556192 0.222161 4.63713e-18)
(1.07184 -1.20289 1.6509e-17)
(0.788808 0.262843 4.40186e-17)
(0.825276 -0.138436 7.2702e-18)
(0.602279 0.223749 2.80627e-18)
(1.02924 -0.895961 2.78316e-17)
(1.0304 -0.108923 -2.19294e-17)
(0.937356 0.0792572 9.18025e-17)
(0.92042 -0.115949 1.91636e-17)
(0.731485 0.213044 -4.20107e-17)
(0.985708 -0.615529 -1.07167e-17)
(0.850231 0.0419105 -1.4724e-16)
(0.913483 -0.0642553 -5.87512e-17)
(0.718636 0.0848243 5.0482e-17)
(0.866032 -0.231826 1.76491e-17)
(0.768816 0.12109 -5.83598e-17)
(0.948895 -0.459389 6.74432e-18)
(0.861971 -0.018616 -1.74388e-17)
(0.852352 0.0787647 -1.93564e-16)
(0.923417 -0.0448785 -9.26053e-17)
(0.868287 0.191328 5.6987e-17)
(0.732791 -0.0963237 -8.00028e-18)
(0.781447 0.0728639 4.7304e-17)
(0.954364 -0.441058 1.70148e-18)
(0.7853 0.0383804 5.25897e-17)
(0.852815 -0.0589372 2.38099e-17)
(0.883243 0.087642 -1.66703e-16)
(0.938996 -0.0744928 -1.29983e-16)
(0.849326 0.116825 1.03979e-16)
(0.853486 -0.0450318 -1.30113e-17)
(0.812722 0.087296 -3.1908e-17)
(0.940195 -0.434416 -1.53509e-17)
(0.851989 -0.0166137 7.20742e-17)
(0.799933 0.0778954 8.18842e-17)
(0.867967 -0.0365425 1.63348e-17)
(0.860356 0.0651471 -1.51603e-16)
(0.862224 -0.066608 -2.51014e-16)
(0.895552 0.0798338 -5.8887e-17)
(0.833822 -0.0042495 -6.35678e-17)
(0.804826 0.088271 3.51358e-17)
(0.93498 -0.422311 7.81709e-18)
(0.797083 0.0398118 -8.241e-18)
(0.875202 -0.0334247 8.4041e-17)
(0.827649 0.0829617 1.14344e-16)
(0.831699 -0.0241896 1.67349e-16)
(0.862783 0.0780729 9.87759e-17)
(0.85832 -0.00790832 -2.60203e-17)
(0.841466 0.0259644 1.154e-16)
(0.846021 -0.0332905 2.22357e-17)
(0.81359 0.0822125 -2.24012e-17)
(0.915637 -0.409653 -1.31934e-18)
(0.861855 -0.0155752 1.32701e-16)
(0.819397 0.0536743 5.46768e-18)
(0.871544 -0.0283223 6.86558e-17)
(0.829956 0.0614729 8.97911e-17)
(0.847357 -0.0478056 9.63516e-17)
(0.888491 0.0389866 6.1809e-17)
(0.830653 0.0174085 -9.43995e-17)
(0.868644 0.0522683 -6.55639e-17)
(0.85748 -0.0130722 -6.55204e-17)
(0.811136 0.0839554 1.88881e-17)
(0.919106 -0.411515 4.16036e-18)
(0.809608 0.0398204 -1.0164e-16)
(0.865155 -0.0178047 1.27672e-16)
(0.837747 0.0749124 -4.31441e-18)
(0.872342 -0.0103792 3.31136e-17)
(0.880712 0.0729901 4.18484e-17)
(0.828085 0.00584376 -8.57008e-17)
(0.843322 0.0228999 -1.71161e-17)
(0.854305 0.00906132 -7.18634e-17)
(0.843585 0.0323526 9.09445e-17)
(0.854222 -0.0179608 1.19327e-17)
(0.815679 0.0828048 -1.85599e-17)
(0.903088 -0.38476 1.14473e-18)
(0.841009 -0.0144932 -2.4823e-17)
(0.816384 0.0539791 -1.57391e-16)
(0.865923 -0.0168088 1.14889e-16)
(0.858923 0.0515987 3.10294e-17)
(0.885011 -0.0214398 2.07684e-17)
(0.893129 0.0406166 2.66638e-17)
(0.860859 0.0127989 1.51814e-16)
(0.885428 0.0300954 1.32334e-16)
(0.842164 0.0129896 -5.95447e-17)
(0.862829 0.0453093 -5.29499e-17)
(0.860637 -0.00985028 -5.51987e-17)
(0.817558 0.0857524 1.19396e-17)
(0.909623 -0.394922 3.07563e-18)
(0.807116 0.0397539 -1.09798e-16)
(0.841075 -0.0147893 -3.95636e-17)
(0.832994 0.0677774 -1.66502e-16)
(0.843194 -0.00201696 6.26644e-17)
(0.854847 0.0498227 1.03713e-17)
(0.831087 0.00641694 1.06625e-17)
(0.875996 0.0310497 -5.09805e-17)
(0.860502 0.0271627 -8.45906e-17)
(0.842179 0.0251828 -1.45997e-18)
(0.858582 0.00768792 -8.42831e-17)
(0.845812 0.0353137 7.40456e-17)
(0.854194 -0.0116413 1.6614e-17)
(0.820215 0.0784833 -1.61041e-17)
(0.892544 -0.367785 1.07253e-18)
(0.851078 -0.0134759 3.8921e-17)
(0.813627 0.0538681 -9.79327e-17)
(0.84367 -0.00914869 3.45912e-17)
(0.837761 0.0500304 -2.2199e-16)
(0.852914 -0.00764773 -1.47608e-16)
(0.86453 0.0383473 -9.2342e-17)
(0.856439 0.0116263 -7.93915e-17)
(0.887345 0.0312674 -4.10303e-17)
(0.864721 0.0179578 6.72154e-17)
(0.882439 0.0356234 1.47823e-16)
(0.844065 0.0116471 -4.57502e-17)
(0.86023 0.0441081 -3.71991e-17)
(0.860326 -0.00618334 -5.5538e-17)
(0.821535 0.082448 8.22679e-18)
(0.902884 -0.380696 3.79909e-18)
(0.815364 0.0398973 5.94503e-18)
(0.8475 -0.0124007 3.23677e-17)
(0.817832 0.0622691 -1.16262e-16)
(0.807652 -0.000768901 5.06838e-17)
(0.822603 0.042744 -6.29085e-17)
(0.807009 0.00876341 -1.95185e-19)
(0.84072 0.0312921 9.57981e-17)
(0.823112 0.0248076 4.95742e-17)
(0.864068 0.0237462 -2.39905e-17)
(0.868185 0.0224151 -7.59475e-17)
(0.848297 0.0259689 6.88534e-18)
(0.856457 0.00810179 -8.77692e-17)
(0.847162 0.0341418 5.96527e-17)
(0.854108 -0.00743467 1.66449e-17)
(0.823006 0.0762048 -1.44791e-17)
(0.884339 -0.353597 1.25443e-18)
(0.857881 -0.0127655 9.30174e-17)
(0.820581 0.0527836 4.26307e-17)
(0.841779 -0.00512838 -2.74993e-18)
(0.824457 0.0485042 -1.81309e-16)
(0.828947 -0.0019753 3.19259e-17)
(0.836581 0.0363167 1.13978e-16)
(0.825007 0.0096368 1.32351e-16)
(0.848243 0.0315041 1.15352e-18)
(0.850969 0.0167173 -5.30172e-17)
(0.882542 0.0323165 -5.0778e-17)
(0.866733 0.0172477 3.47025e-17)
(0.881955 0.0397096 1.4702e-16)
(0.846893 0.011713 -3.61801e-17)
(0.858356 0.0420778 -2.92997e-17)
(0.859698 -0.0020842 -5.54913e-17)
(0.824523 0.0801092 4.40657e-18)
(0.897742 -0.367997 4.6148e-18)
(0.824611 0.0388988 -6.55171e-17)
(0.850968 -0.010501 1.14106e-16)
(0.82147 0.0570881 1.08365e-16)
(0.818554 0.00116825 1.79852e-16)
(0.829986 0.0414317 3.19344e-17)
(0.811951 0.0109943 -1.02187e-16)
(0.829056 0.0316685 -2.54459e-16)
(0.806343 0.0234794 -1.37823e-16)
(0.834526 0.0286808 5.51607e-17)
(0.824722 0.0270011 5.61044e-17)
(0.860591 0.0214978 -9.65296e-18)
(0.871205 0.0221537 -6.48992e-17)
(0.851904 0.0264778 1.67046e-17)
(0.853798 0.0102238 -8.75437e-17)
(0.847986 0.0331123 5.07059e-17)
(0.854532 -0.00434651 1.70641e-17)
(0.825164 0.0745405 -1.31717e-17)
(0.877807 -0.341252 2.02411e-19)
(0.868366 -0.0120374 3.05317e-17)
(0.831003 0.051996 -7.87764e-17)
(0.854777 -0.00115757 9.1245e-17)
(0.836453 0.0484221 1.47871e-16)
(0.847675 0.00341305 1.70469e-16)
(0.849935 0.0368456 -3.54188e-17)
(0.838011 0.00985231 7.88322e-18)
(0.84163 0.0333025 5.51964e-17)
(0.827255 0.0150598 1.584e-16)
(0.842812 0.0305974 3.54121e-17)
(0.846566 0.0166348 -4.04368e-17)
(0.879612 0.0321664 -5.72822e-17)
(0.866914 0.0163013 -1.93268e-19)
(0.881188 0.0399669 1.47378e-16)
(0.850104 0.0129845 -3.23083e-17)
(0.857003 0.0406135 -2.83951e-17)
(0.85961 0.000567361 -5.35273e-17)
(0.826826 0.0783656 1.63319e-18)
(0.893487 -0.356493 4.20481e-18)
(0.825648 0.0383314 -5.1771e-17)
(0.862938 -0.00860267 3.34484e-17)
(0.83215 0.0525473 -6.45519e-17)
(0.831879 0.00327948 5.24098e-19)
(0.838053 0.0399664 -2.07664e-17)
(0.824793 0.0123588 -7.40574e-17)
(0.841229 0.0328855 6.10662e-17)
(0.822662 0.0232001 -1.37145e-17)
(0.831452 0.0303727 -2.36257e-16)
(0.808331 0.0250492 -1.83954e-16)
(0.832362 0.0265019 2.5821e-17)
(0.825788 0.0290145 5.79117e-17)
(0.856852 0.0223975 -3.14912e-18)
(0.874246 0.0224128 -5.86066e-17)
(0.855025 0.0268449 2.45496e-17)
(0.853154 0.0108387 -8.72803e-17)
(0.847143 0.0323278 4.67759e-17)
(0.8552 -0.002084 1.52047e-17)
(0.826867 0.073464 -1.2123e-17)
(0.872393 -0.329818 -6.93088e-19)
(0.872454 -0.0119785 -7.81158e-17)
(0.835383 0.0510814 -6.15033e-17)
(0.862482 0.00326745 3.77121e-17)
(0.843951 0.0476505 -7.005e-17)
(0.85435 0.00780133 -6.07047e-17)
(0.850996 0.0366293 1.27233e-16)
(0.844029 0.0108165 3.12506e-16)
(0.852509 0.0332276 1.81756e-16)
(0.841128 0.013545 3.08696e-17)
(0.842632 0.0321029 2.90259e-17)
(0.828899 0.0155263 1.49822e-16)
(0.840213 0.0302448 5.38284e-17)
(0.843446 0.0172386 -2.72515e-17)
(0.877343 0.0334955 -5.64151e-17)
(0.867653 0.0167559 -1.96469e-17)
(0.881122 0.0398131 1.47329e-16)
(0.852451 0.0144425 -2.75985e-17)
(0.854852 0.0388938 -2.13188e-17)
(0.859526 0.00262062 -4.83794e-17)
(0.82868 0.0771869 -1.33291e-18)
(0.890077 -0.345698 5.30874e-18)
(0.828538 0.0389998 3.12851e-16)
(0.869405 -0.00637677 -3.45636e-17)
(0.835824 0.048839 -1.03966e-16)
(0.844359 0.00524014 -5.37886e-17)
(0.848873 0.0391664 -8.99464e-17)
(0.841177 0.0144314 -3.06372e-17)
(0.854952 0.0328943 -7.89899e-17)
(0.832841 0.0231441 -1.52657e-16)
(0.842631 0.0310728 5.35493e-17)
(0.825574 0.0260072 3.42784e-17)
(0.832967 0.0303909 -2.05562e-16)
(0.810709 0.0261514 -1.99891e-16)
(0.830213 0.024875 5.24954e-18)
(0.827341 0.0294535 5.35227e-17)
(0.854263 0.0223094 -1.92674e-18)
(0.874008 0.022359 -5.79496e-17)
(0.857363 0.0284116 2.99805e-17)
(0.853414 0.0122482 -8.6375e-17)
(0.848035 0.0319179 3.81311e-17)
(0.856012 -0.000836753 1.35824e-17)
(0.828192 0.0724932 -1.22269e-17)
(0.867822 -0.31887 2.87632e-20)
(0.871146 -0.0114696 -4.00638e-16)
(0.843326 0.0499633 1.83585e-16)
(0.874329 0.00747452 -9.87627e-17)
(0.85432 0.0473293 -1.79844e-16)
(0.866674 0.0109295 1.3099e-17)
(0.862115 0.0365184 -3.54072e-17)
(0.85937 0.0120113 -1.21213e-16)
(0.859743 0.0323609 -1.38736e-16)
(0.845539 0.0144674 1.99618e-16)
(0.853488 0.0316838 2.08586e-16)
(0.842747 0.0149171 5.38848e-17)
(0.842675 0.0318928 1.68318e-17)
(0.829963 0.01647 1.39051e-16)
(0.838376 0.0303781 6.46164e-17)
(0.840392 0.0169129 -1.50019e-17)
(0.875414 0.0343789 -5.19981e-17)
(0.868419 0.0173761 -3.41771e-17)
(0.88028 0.0390591 1.46716e-16)
(0.85394 0.0160496 -2.41813e-17)
(0.853667 0.0382555 -1.94882e-17)
(0.859779 0.00392327 -4.7951e-17)
(0.830073 0.0762742 -3.10717e-18)
(0.887577 -0.335243 4.55743e-18)
(0.835598 0.0393776 3.50216e-17)
(0.871733 -0.0039764 -4.28999e-16)
(0.843599 0.0455743 1.72462e-16)
(0.860331 0.0071775 9.11552e-17)
(0.858324 0.038721 3.07781e-17)
(0.855248 0.0163446 6.73402e-17)
(0.864908 0.0330914 -1.04633e-16)
(0.847516 0.0236044 -5.18289e-17)
(0.857549 0.0305188 -3.81567e-17)
(0.835069 0.0264755 -1.63652e-16)
(0.84382 0.0306507 2.80091e-17)
(0.828265 0.0271977 6.01228e-17)
(0.832788 0.0291244 -1.81955e-16)
(0.813222 0.0279315 -2.03425e-16)
(0.82865 0.0245383 -9.10578e-18)
(0.828688 0.0297077 4.87323e-17)
(0.852533 0.0225992 1.61007e-18)
(0.874439 0.0224665 -5.74626e-17)
(0.859182 0.0292023 3.47649e-17)
(0.853617 0.0127319 -8.47119e-17)
(0.847211 0.0317655 3.42893e-17)
(0.856514 -0.000139063 1.36482e-17)
(0.829169 0.0716121 -1.11359e-17)
(0.864342 -0.308022 3.70899e-18)
(0.87566 -0.0102028 6.68483e-17)
(0.853469 0.0492357 1.36623e-16)
(0.887186 0.0102564 -2.82186e-16)
(0.864574 0.0464302 2.00814e-16)
(0.8794 0.0139431 1.10575e-16)
(0.873308 0.0367512 -7.29787e-17)
(0.873455 0.0135321 -1.34282e-16)
(0.871653 0.0322583 -4.45693e-17)
(0.863649 0.0158128 -1.02131e-16)
(0.862887 0.0296529 -1.87984e-16)
(0.8453 0.0164413 1.09903e-16)
(0.85082 0.0295148 2.12935e-16)
(0.844945 0.0161876 6.78579e-17)
(0.843257 0.0310955 8.68775e-18)
(0.829867 0.017805 1.16978e-16)
(0.835194 0.0277948 6.94366e-17)
(0.836822 0.0176097 -2.58519e-19)
(0.871295 0.03436 -4.55438e-17)
(0.869264 0.0174152 -4.7369e-17)
(0.878936 0.037998 1.41636e-16)
(0.855825 0.0168817 -2.16144e-17)
(0.852792 0.0379184 -1.7093e-17)
(0.86018 0.00454354 -4.82024e-17)
(0.831385 0.0748733 -5.34163e-18)
(0.876406 -0.314604 8.07523e-19)
(0.836066 0.0395616 1.33838e-16)
(0.871168 -0.00170881 7.15752e-17)
(0.848674 0.0437726 1.83179e-16)
(0.873689 0.010267 -3.94583e-16)
(0.868383 0.0382296 -1.85644e-16)
(0.870787 0.0181527 -1.39773e-16)
(0.877995 0.0335937 -6.64234e-17)
(0.866323 0.025124 9.28299e-17)
(0.870191 0.031647 -5.95178e-17)
(0.850851 0.0265881 -6.00215e-17)
(0.858606 0.0285195 -2.58886e-17)
(0.841567 0.0283064 -1.32204e-16)
(0.843515 0.0305871 1.79315e-17)
(0.830359 0.0283006 7.70621e-17)
(0.83331 0.0286461 -1.62034e-16)
(0.817221 0.0277153 -1.93155e-16)
(0.8303 0.0266637 -1.68748e-17)
(0.831649 0.0293635 4.0826e-17)
(0.852993 0.0247531 -1.996e-18)
(0.874276 0.0223781 -5.46983e-17)
(0.861404 0.030475 4.16484e-17)
(0.854272 0.0139964 -8.3463e-17)
(0.846827 0.0318064 3.0871e-17)
(0.857054 0.00018181 1.15173e-17)
(0.830378 0.0689229 -1.08726e-17)
(0.873218 -0.313027 3.74825e-18)
(0.870545 -0.0093733 1.41819e-16)
(0.849048 0.0482423 1.53802e-16)
(0.880701 0.0126124 4.41284e-17)
(0.862462 0.0441529 3.2335e-16)
(0.878484 0.0161701 -9.07607e-17)
(0.87156 0.0368148 1.70517e-17)
(0.874003 0.0152841 2.22258e-16)
(0.8744 0.0319704 3.08433e-16)
(0.874512 0.0163511 -6.92303e-18)
(0.873388 0.0303068 -2.55982e-17)
(0.866049 0.0186359 -8.24319e-17)
(0.863256 0.0298907 -2.08658e-16)
(0.846663 0.0172386 6.44936e-17)
(0.850873 0.0287416 2.06538e-16)
(0.843957 0.018115 8.25042e-17)
(0.842985 0.030879 2.64367e-18)
(0.830487 0.019338 1.03853e-16)
(0.833723 0.0280884 7.34554e-17)
(0.834166 0.0174913 1.19117e-17)
(0.86517 0.0322143 -3.33239e-17)
(0.869614 0.0176595 -5.99254e-17)
(0.87677 0.0372503 1.36209e-16)
(0.857022 0.017648 -1.8207e-17)
(0.852379 0.0375886 -1.52068e-17)
(0.860761 0.00477096 -4.25173e-17)
(0.82972 0.0737606 -7.42573e-18)
(0.875353 -0.311012 1.31627e-18)
(0.826753 0.0395512 -5.11528e-16)
(0.861167 0.000123382 3.04647e-17)
(0.842677 0.0418841 1.1929e-16)
(0.870762 0.0140036 -4.661e-17)
(0.863302 0.0372238 3.27102e-16)
(0.865951 0.0192867 3.6575e-16)
(0.867834 0.0328805 3.28572e-16)
(0.862056 0.0257623 5.8555e-17)
(0.875888 0.0318706 -6.27816e-17)
(0.867826 0.0273134 9.14763e-17)
(0.87262 0.0305607 -3.66704e-17)
(0.853418 0.0280927 -6.20864e-17)
(0.858844 0.0288304 -2.1561e-17)
(0.842612 0.0287907 -1.32253e-16)
(0.844124 0.0300444 1.35195e-17)
(0.834175 0.0281122 8.79317e-17)
(0.833924 0.0284421 -1.46009e-16)
(0.818346 0.0282327 -1.93397e-16)
(0.828929 0.0262948 -2.36107e-17)
(0.833039 0.0285682 3.56059e-17)
(0.856026 0.0274283 -6.63263e-18)
(0.874465 0.0227913 -5.85972e-17)
(0.864648 0.0309517 4.804e-17)
(0.854755 0.0152172 -8.07211e-17)
(0.846588 0.0327364 2.85471e-17)
(0.858792 0.000891018 9.28429e-18)
(0.826903 0.0739095 -9.1918e-18)
(0.870082 -0.301612 3.46317e-18)
(0.860525 -0.00847147 5.03978e-16)
(0.838578 0.0470941 -3.91893e-16)
(0.871621 0.0146154 5.51599e-17)
(0.85225 0.0421487 1.87346e-16)
(0.870346 0.0177344 -1.00684e-16)
(0.861303 0.0366554 -1.69693e-16)
(0.864199 0.0168899 -3.09785e-16)
(0.86527 0.0317543 -4.0816e-16)
(0.870882 0.0167626 -7.30788e-17)
(0.873771 0.0305345 2.96783e-16)
(0.87462 0.0182396 4.15938e-17)
(0.873805 0.0298457 -1.3901e-17)
(0.866858 0.018595 -6.59628e-17)
(0.865059 0.0297376 -2.14293e-16)
(0.847608 0.0196303 2.16503e-17)
(0.850296 0.0288221 1.98465e-16)
(0.843949 0.0185836 9.36167e-17)
(0.843115 0.0301424 -7.23944e-18)
(0.831246 0.0197886 9.61104e-17)
(0.833683 0.0294513 7.1531e-17)
(0.832794 0.0181732 1.83145e-17)
(0.862989 0.0327045 -2.55385e-17)
(0.869342 0.0179897 -6.5732e-17)
(0.876348 0.0365531 1.33341e-16)
(0.857543 0.018062 -1.43193e-17)
(0.851729 0.037206 -1.29497e-17)
(0.862131 0.00242411 -3.97202e-17)
(0.830772 0.0759874 -1.00602e-17)
(0.872737 -0.300315 1.77007e-18)
(0.820482 0.0393693 -6.45067e-17)
(0.848169 0.00165783 5.50988e-16)
(0.835139 0.0399255 -3.58698e-16)
(0.860139 0.0174422 -1.31939e-16)
(0.851621 0.0361114 7.07101e-17)
(0.854886 0.0205635 1.64538e-16)
(0.858544 0.032281 9.52875e-17)
(0.85717 0.0265553 1.56437e-16)
(0.865889 0.0317929 3.75614e-16)
(0.860111 0.0278559 1.51351e-16)
(0.874952 0.0312306 -5.54108e-17)
(0.868413 0.0281725 9.24232e-17)
(0.873712 0.0302526 -2.20358e-17)
(0.855184 0.0285854 -6.31089e-17)
(0.85931 0.0287562 -1.84077e-17)
(0.844474 0.0274616 -1.20169e-16)
(0.844306 0.029872 6.51519e-18)
(0.835383 0.0283582 9.52625e-17)
(0.834927 0.0285156 -1.25071e-16)
(0.819765 0.0284315 -1.91151e-16)
(0.828252 0.0263525 -2.64021e-17)
(0.832859 0.0275622 3.41294e-17)
(0.855308 0.0277449 -5.28986e-18)
(0.873778 0.0233015 -6.0972e-17)
(0.866443 0.0313998 5.31112e-17)
(0.855165 0.0161033 -8.08741e-17)
(0.846939 0.0344058 2.45883e-17)
(0.857976 0.000272436 9.46348e-18)
(0.829621 0.072731 -9.76949e-18)
(0.868209 -0.291739 3.3373e-18)
(0.851042 -0.00768538 -2.23863e-16)
(0.823199 0.0457806 -2.06312e-16)
(0.855517 0.0162898 3.73633e-16)
(0.839984 0.0392652 -4.67381e-16)
(0.861645 0.0190611 -5.4079e-16)
(0.850109 0.0364779 -5.18118e-16)
(0.855866 0.0183482 -4.92556e-16)
(0.855161 0.0317888 -3.37416e-16)
(0.859968 0.0170856 -3.28555e-16)
(0.863061 0.0302459 -4.72918e-16)
(0.868829 0.018044 -1.77961e-16)
(0.87319 0.0297053 2.69137e-16)
(0.874473 0.0188465 6.55828e-17)
(0.874426 0.0295465 -3.14212e-18)
(0.866361 0.0192361 -5.20986e-17)
(0.8658 0.0298085 -2.16457e-16)
(0.848457 0.0198848 -4.94743e-18)
(0.850707 0.0288881 1.90372e-16)
(0.843939 0.0192342 1.03189e-16)
(0.840415 0.0291487 -2.85095e-17)
(0.831251 0.019671 7.69643e-17)
(0.833666 0.0301913 6.83922e-17)
(0.832084 0.0183363 2.17114e-17)
(0.861872 0.0329728 -2.06941e-17)
(0.868613 0.0183554 -7.18187e-17)
(0.874297 0.0351402 1.20169e-16)
(0.858102 0.0181868 -1.57132e-17)
(0.851444 0.0381844 -1.1349e-17)
(0.861401 0.00192308 -3.88413e-17)
(0.83301 0.0739933 -9.44547e-18)
(0.871148 -0.291491 2.07638e-18)
(0.820839 0.0385329 3.78344e-16)
(0.831512 0.00340162 -1.80163e-16)
(0.819923 0.037863 -1.91347e-16)
(0.843683 0.020302 6.98322e-16)
(0.838849 0.0349813 3.49174e-16)
(0.843551 0.0219739 1.52659e-16)
(0.847912 0.0316467 1.93603e-16)
(0.843541 0.02718 3.72119e-16)
(0.852687 0.0310573 2.58694e-16)
(0.853796 0.0278824 1.41961e-16)
(0.865302 0.0307725 3.64526e-16)
(0.859132 0.0288763 1.90444e-16)
(0.874201 0.0309149 -4.68124e-17)
(0.868799 0.0285748 9.20985e-17)
(0.874594 0.0301212 -1.23543e-17)
(0.85779 0.0283258 -6.16377e-17)
(0.859763 0.0290533 -1.6223e-17)
(0.845253 0.027807 -1.19048e-16)
(0.844599 0.0297833 7.21032e-19)
(0.83682 0.0283959 1.03282e-16)
(0.83966 0.0291444 -9.34429e-17)
(0.821576 0.0283503 -1.81565e-16)
(0.827477 0.026281 -3.12004e-17)
(0.832066 0.0272201 3.32772e-17)
(0.854847 0.0277283 -3.82165e-18)
(0.8734 0.0235788 -6.33226e-17)
(0.870153 0.0323458 6.53416e-17)
(0.855938 0.0167135 -7.4214e-17)
(0.846939 0.0355053 2.40447e-17)
(0.856653 0.000475409 9.56013e-18)
(0.831164 0.0717839 -1.12865e-17)
(0.866785 -0.283112 3.26484e-18)
(0.85164 -0.00693621 -4.27623e-16)
(0.818523 0.0432898 3.37787e-16)
(0.846444 0.0181401 -1.21348e-16)
(0.827921 0.038521 -3.99106e-16)
(0.850821 0.020272 4.72826e-16)
(0.837572 0.0359752 4.05311e-16)
(0.843661 0.0193934 4.40408e-16)
(0.83937 0.0317557 1.16251e-16)
(0.848203 0.0177352 -3.2038e-16)
(0.852889 0.0311452 -3.2561e-16)
(0.858288 0.0184134 -3.02585e-16)
(0.861454 0.0303895 -4.38951e-16)
(0.867718 0.0186091 -2.32706e-16)
(0.872389 0.0297725 2.37777e-16)
(0.873788 0.0195322 8.19309e-17)
(0.874732 0.0293129 5.29218e-18)
(0.866873 0.0191011 -4.08539e-17)
(0.866213 0.0296514 -2.13807e-16)
(0.84916 0.0200773 -2.54955e-17)
(0.850557 0.028755 1.78075e-16)
(0.843816 0.0203449 1.10647e-16)
(0.839459 0.029166 -2.64508e-17)
(0.831355 0.0196229 6.66439e-17)
(0.833648 0.0305205 6.30344e-17)
(0.830963 0.0188755 2.47261e-17)
(0.860883 0.0330949 -1.74835e-17)
(0.868153 0.0191882 -7.69809e-17)
(0.873712 0.0349048 1.17392e-16)
(0.858924 0.0176114 -1.67384e-17)
(0.851603 0.0386564 -1.1896e-17)
(0.860062 0.00202455 -3.60318e-17)
(0.833153 0.0747593 -1.13919e-17)
(0.87005 -0.283029 -3.96353e-18)
(0.819288 0.0372534 3.94395e-17)
(0.821431 0.00573044 -3.83926e-16)
(0.818251 0.0360496 3.52808e-16)
(0.837644 0.022304 4.4928e-17)
(0.833461 0.0344375 -8.03795e-16)
(0.837182 0.0233332 -6.24317e-16)
(0.838901 0.0312977 -4.50201e-16)
(0.833841 0.0277772 -4.79453e-16)
(0.843001 0.0303174 -2.06204e-16)
(0.840595 0.0283007 2.53161e-16)
(0.851378 0.0300018 2.67659e-16)
(0.85207 0.0280365 1.30349e-16)
(0.865741 0.0289714 3.04549e-16)
(0.857978 0.0291547 2.01194e-16)
(0.873537 0.0304274 -2.92611e-17)
(0.869761 0.0292478 9.0881e-17)
(0.874794 0.0304021 -5.27757e-18)
(0.859247 0.0289267 -6.14696e-17)
(0.860409 0.0291576 -1.98047e-17)
(0.846199 0.0281752 -1.19571e-16)
(0.845079 0.0301257 1.48696e-19)
(0.837567 0.0283167 1.06246e-16)
(0.840106 0.0291016 -8.23354e-17)
(0.82281 0.0284978 -1.78806e-16)
(0.828182 0.026622 -2.85787e-17)
(0.831694 0.0266981 3.27913e-17)
(0.854201 0.0279526 -2.03378e-18)
(0.872694 0.0235105 -6.83737e-17)
(0.871186 0.0328155 6.75611e-17)
(0.856621 0.0172204 -7.30333e-17)
(0.847486 0.0357823 2.12405e-17)
(0.857536 -0.000242086 1.01221e-17)
(0.831425 0.0718489 -1.11206e-17)
(0.86604 -0.274967 8.05042e-18)
(0.84511 -0.00625797 -5.53783e-17)
(0.814292 0.0404676 1.01118e-16)
(0.837946 0.0196345 -3.72919e-16)
(0.818854 0.037608 4.11844e-16)
(0.842475 0.0216981 6.7881e-16)
(0.830078 0.0352793 3.82153e-16)
(0.835999 0.0204827 2.91339e-16)
(0.831011 0.0317912 3.82467e-16)
(0.839204 0.0187519 6.11656e-16)
(0.837856 0.0311093 3.3766e-16)
(0.845568 0.0184829 -2.15447e-16)
(0.851283 0.0305953 -3.11518e-16)
(0.856799 0.0202071 -2.83647e-16)
(0.860637 0.0300542 -4.36756e-16)
(0.864897 0.0203914 -2.13922e-16)
(0.87202 0.0292942 2.17508e-16)
(0.874054 0.0194253 9.73748e-17)
(0.874965 0.0291585 1.27807e-17)
(0.867232 0.0190191 -3.05037e-17)
(0.866501 0.029447 -2.08889e-16)
(0.849983 0.0204947 -4.0528e-17)
(0.85037 0.0286815 1.67736e-16)
(0.843472 0.0212382 1.1736e-16)
(0.839936 0.0292234 -2.7942e-17)
(0.831344 0.0197019 5.37343e-17)
(0.832747 0.0307217 5.58619e-17)
(0.830311 0.0198806 2.70309e-17)
(0.85984 0.0329479 -1.31341e-17)
(0.868146 0.0199041 -7.88636e-17)
(0.873795 0.0352514 1.16202e-16)
(0.859179 0.0177254 -1.49114e-17)
(0.851171 0.0397102 -8.98201e-18)
(0.860224 0.000971773 -3.98372e-17)
(0.836134 0.0693023 -1.2534e-17)
(0.868804 -0.275676 -2.0746e-18)
(0.817819 0.0359819 1.28866e-16)
(0.815723 0.00813889 -7.66657e-17)
(0.819456 0.0350839 1.15473e-16)
(0.834433 0.0243059 -6.74599e-16)
(0.829465 0.034183 -1.70964e-16)
(0.831937 0.0243939 2.45505e-16)
(0.831651 0.0308771 1.696e-16)
(0.828345 0.028634 3.27919e-17)
(0.835737 0.0291519 -1.85317e-16)
(0.830921 0.0283284 -4.70869e-16)
(0.841843 0.0292854 -3.04837e-16)
(0.839437 0.0285445 1.8781e-16)
(0.850768 0.029336 2.6744e-16)
(0.851294 0.0284817 1.1082e-16)
(0.864535 0.0286157 2.87719e-16)
(0.861118 0.0282638 1.53269e-16)
(0.872526 0.0305617 -2.35169e-17)
(0.869756 0.029562 8.79578e-17)
(0.875028 0.0305188 1.32078e-19)
(0.86022 0.0296619 -5.97851e-17)
(0.860858 0.0293979 -2.17817e-17)
(0.84687 0.0284032 -1.20193e-16)
(0.845373 0.0301693 -3.52704e-18)
(0.839125 0.0278574 1.11495e-16)
(0.840377 0.0291741 -6.98927e-17)
(0.824307 0.0286503 -1.70108e-16)
(0.828819 0.0278121 -2.20629e-17)
(0.831324 0.0259355 3.22842e-17)
(0.853472 0.02803 8.15367e-20)
(0.87235 0.0232173 -7.06018e-17)
(0.871693 0.0330781 6.89734e-17)
(0.857123 0.0179836 -7.08594e-17)
(0.848225 0.0367316 1.65948e-17)
(0.85384 0.00325195 1.18527e-17)
(0.834477 0.0670911 -1.09873e-17)
(0.865095 -0.26819 1.32615e-17)
(0.842001 -0.00605222 9.64268e-17)
(0.807882 0.037216 1.95018e-16)
(0.830837 0.0209486 -1.92482e-18)
(0.81914 0.0368275 2.49812e-16)
(0.838594 0.0228693 -5.0072e-16)
(0.826028 0.0347206 -4.39515e-16)
(0.832637 0.0215626 -2.52074e-16)
(0.828112 0.0317616 -1.96077e-16)
(0.833821 0.0198438 -1.05201e-16)
(0.83067 0.0312782 1.84432e-16)
(0.837651 0.0193491 5.73089e-16)
(0.836891 0.0310213 4.12967e-16)
(0.843212 0.0197732 -1.38389e-16)
(0.849967 0.0297182 -2.92986e-16)
(0.855829 0.020956 -2.50615e-16)
(0.86007 0.030361 -4.07348e-16)
(0.863418 0.0206644 -2.18005e-16)
(0.871339 0.0291401 1.94706e-16)
(0.874153 0.0195825 1.06199e-16)
(0.875154 0.0290162 1.99698e-17)
(0.867504 0.0198149 -2.5074e-17)
(0.865653 0.0295413 -1.87507e-16)
(0.850227 0.0209482 -6.00069e-17)
(0.848674 0.0291518 1.43044e-16)
(0.843457 0.0215587 1.2192e-16)
(0.840258 0.029408 -2.64201e-17)
(0.831703 0.019874 3.80311e-17)
(0.832456 0.0301911 5.09983e-17)
(0.829536 0.0203341 2.90478e-17)
(0.858516 0.0330877 -1.21527e-17)
(0.86821 0.0203154 -8.60613e-17)
(0.874103 0.0353978 1.14327e-16)
(0.859234 0.0178518 -1.1398e-17)
(0.851649 0.0387591 -4.42168e-18)
(0.856988 0.00516424 -3.53091e-17)
(0.835917 0.0703894 -1.37054e-17)
(0.867968 -0.268468 -1.44954e-19)
(0.820596 0.0347025 1.06501e-16)
(0.815398 0.00959431 -1.29987e-17)
(0.817479 0.0346126 4.63762e-17)
(0.828802 0.0257161 -1.71776e-17)
(0.824442 0.034012 6.15902e-16)
(0.830571 0.0256519 3.18296e-16)
(0.833598 0.0310262 -8.03662e-17)
(0.835423 0.0298726 -5.97265e-17)
(0.837229 0.0285359 1.32525e-16)
(0.827912 0.0287429 1.19934e-16)
(0.835374 0.0281971 -9.05976e-17)
(0.830285 0.0285319 -4.2834e-16)
(0.841018 0.0285476 -3.52321e-16)
(0.839967 0.0285642 1.35317e-16)
(0.850031 0.029113 2.5949e-16)
(0.850785 0.0290641 9.13785e-17)
(0.863724 0.0281337 2.4603e-16)
(0.860834 0.0287069 1.0982e-16)
(0.87165 0.0308056 -1.42889e-17)
(0.870567 0.0297635 8.82366e-17)
(0.875126 0.0305226 3.91992e-18)
(0.86153 0.029009 -5.50144e-17)
(0.862947 0.0291751 -3.93002e-17)
(0.847973 0.028116 -1.16153e-16)
(0.847832 0.0297916 8.63302e-18)
(0.839591 0.0279859 1.17888e-16)
(0.840296 0.029463 -6.21392e-17)
(0.825592 0.0287416 -1.60817e-16)
(0.828713 0.0278945 -2.84464e-17)
(0.831254 0.0258284 2.84676e-17)
(0.852678 0.0282559 4.69978e-18)
(0.871832 0.0230069 -6.99893e-17)
(0.872083 0.0331335 7.01188e-17)
(0.857874 0.018285 -7.14677e-17)
(0.84945 0.0356744 1.23959e-17)
(0.855175 0.00304589 7.67104e-18)
(0.834381 0.068373 -1.1556e-17)
(0.864479 -0.261089 5.39765e-18)
(0.850928 -0.00551319 -2.23186e-16)
(0.820882 0.0362152 9.5386e-18)
(0.841817 0.0228615 -8.14403e-17)
(0.827814 0.0361694 9.06762e-17)
(0.841116 0.0240375 -5.69375e-17)
(0.834198 0.0347273 1.77539e-16)
(0.8476 0.0231555 2.11732e-16)
(0.846381 0.0322439 1.05702e-16)
(0.845042 0.0212014 4.78386e-18)
(0.832418 0.0314518 -1.62014e-16)
(0.833859 0.0201807 -1.65849e-16)
(0.830506 0.0308177 9.4333e-17)
(0.836655 0.0196723 5.20196e-16)
(0.836126 0.0308566 4.43822e-16)
(0.841727 0.0203146 -8.71164e-17)
(0.848956 0.0290935 -2.73325e-16)
(0.855709 0.0207587 -2.25473e-16)
(0.85945 0.0297842 -3.79959e-16)
(0.864093 0.0204334 -2.04382e-16)
(0.870272 0.0296502 1.62994e-16)
(0.873775 0.0197851 1.14346e-16)
(0.875234 0.0292164 2.55355e-17)
(0.867397 0.0202583 -1.71605e-17)
(0.865419 0.0297112 -1.82829e-16)
(0.85044 0.0216159 -7.51016e-17)
(0.848244 0.029119 1.34986e-16)
(0.84366 0.0220844 1.25393e-16)
(0.840772 0.0295806 -2.50255e-17)
(0.831395 0.0209386 1.7982e-17)
(0.832481 0.0305704 4.58884e-17)
(0.829196 0.0203718 3.06745e-17)
(0.85745 0.0331807 -7.97627e-18)
(0.868127 0.0207899 -9.01059e-17)
(0.874601 0.0354493 1.11638e-16)
(0.859536 0.0182022 -1.5237e-17)
(0.851129 0.0391957 -8.41182e-18)
(0.858126 0.00351568 -2.76873e-17)
(0.835651 0.0709968 -1.48092e-17)
(0.867288 -0.261256 6.59937e-18)
(0.832413 0.0334257 2.25821e-18)
(0.82891 0.0105042 -1.20286e-16)
(0.826961 0.0341857 1.64031e-16)
(0.836077 0.027374 1.74213e-16)
(0.835061 0.0342487 1.17744e-16)
(0.845925 0.027487 -3.67994e-16)
(0.852913 0.031651 -3.81408e-16)
(0.855943 0.0313731 -2.08467e-16)
(0.850127 0.0286444 -2.29799e-16)
(0.838717 0.0294008 -1.66966e-16)
(0.839255 0.0278094 8.10419e-17)
(0.828269 0.0289443 1.34342e-16)
(0.835076 0.0278313 -3.59179e-17)
(0.829803 0.028581 -3.87086e-16)
(0.840132 0.0284328 -3.59632e-16)
(0.84029 0.028285 9.74124e-17)
(0.848975 0.0291503 2.55263e-16)
(0.850653 0.0292844 8.17506e-17)
(0.862888 0.0286503 2.23772e-16)
(0.860444 0.0285933 1.08601e-16)
(0.872449 0.0299812 4.12422e-18)
(0.87054 0.0299713 8.76444e-17)
(0.875482 0.0304803 9.52272e-18)
(0.862296 0.0291684 -5.24505e-17)
(0.863563 0.0290282 -4.00624e-17)
(0.848779 0.0279545 -1.15967e-16)
(0.847903 0.0298702 3.45378e-18)
(0.840479 0.0276403 1.18788e-16)
(0.840468 0.0296307 -5.38768e-17)
(0.826873 0.0280168 -1.42787e-16)
(0.8287 0.028019 -2.77459e-17)
(0.830752 0.0260175 3.03499e-17)
(0.852074 0.0288535 6.25059e-18)
(0.871034 0.0230989 -7.15339e-17)
(0.872592 0.0332051 6.89617e-17)
(0.858403 0.0187971 -6.03239e-17)
(0.849347 0.0366856 1.55592e-17)
(0.855631 0.00209848 2.25083e-18)
(0.837127 0.0634273 -1.55619e-17)
(0.863898 -0.255024 -6.69696e-18)
(0.863888 -0.00491492 -3.01528e-16)
(0.837712 0.0351968 -1.79992e-17)
(0.849086 0.0248801 -8.19878e-17)
(0.836822 0.035873 1.07074e-16)
(0.854413 0.025212 -2.09384e-16)
(0.855564 0.0351298 -1.10418e-16)
(0.870415 0.0249278 -1.45122e-16)
(0.86593 0.0328232 -1.06543e-16)
(0.862881 0.0222793 2.58068e-17)
(0.85207 0.0322986 1.07451e-16)
(0.848524 0.0217174 5.27781e-17)
(0.834998 0.0309652 -1.27223e-16)
(0.834215 0.0204647 -1.72027e-16)
(0.830329 0.0305837 3.98499e-17)
(0.834929 0.0210209 4.28107e-16)
(0.835887 0.0302945 4.46538e-16)
(0.840729 0.0207378 -4.65504e-17)
(0.848246 0.0287751 -2.60953e-16)
(0.853583 0.0213983 -1.97139e-16)
(0.858573 0.0296648 -3.38629e-16)
(0.86364 0.0210933 -2.16491e-16)
(0.869327 0.0297506 1.42699e-16)
(0.873921 0.0197072 1.21529e-16)
(0.875273 0.029103 3.0385e-17)
(0.867593 0.0205757 -1.21873e-17)
(0.865406 0.0297637 -1.78223e-16)
(0.850874 0.0219964 -8.88923e-17)
(0.8483 0.0294318 1.26436e-16)
(0.843684 0.0221671 1.31722e-16)
(0.841242 0.0297292 -2.29204e-17)
(0.8314 0.0212304 9.02232e-18)
(0.832645 0.0309341 4.4393e-17)
(0.828709 0.0204898 3.22372e-17)
(0.856598 0.0327843 -4.24847e-18)
(0.867731 0.0212942 -9.3567e-17)
(0.875044 0.0354984 1.16558e-16)
(0.859648 0.0186196 -1.34859e-17)
(0.850979 0.0396677 -6.78485e-18)
(0.854458 0.00712068 -2.58914e-17)
(0.838286 0.0666713 -1.27397e-17)
(0.866614 -0.255159 1.0411e-17)
(0.843544 0.0325856 1.17685e-16)
(0.847962 0.0113623 -3.34738e-16)
(0.841746 0.0347223 -9.28224e-17)
(0.85264 0.0289386 -3.49431e-16)
(0.854319 0.0346948 -2.91438e-16)
(0.865994 0.0293311 -2.33792e-16)
(0.869824 0.0319765 1.65329e-16)
(0.868356 0.0322694 3.69295e-16)
(0.863929 0.0285998 2.03695e-16)
(0.859212 0.0309241 -6.01773e-17)
(0.854435 0.0279265 -2.08481e-16)
(0.840212 0.0291188 -1.99799e-16)