/*--------------------------------*- C++ -*----------------------------------*\
| =========                 |                                                 |
| \\      /  F ield         | OpenFOAM: The Open Source CFD Toolbox           |
|  \\    /   O peration     | Version:  2206                                  |
|   \\  /    A nd           | Website:  www.openfoam.com                      |
|    \\/     M anipulation  |                                                 |
\*---------------------------------------------------------------------------*/
FoamFile
{
    version     2.0;
    format      ascii;
    arch        "LSB;label=32;scalar=64";
    class       volScalarField;
    location    "180";
    object      T;
}
// * * * * * * * * * * * * * * * * * * * * * * * * * * * * * * * * * * * * * //

dimensions      [0 0 0 1 0 0 0];

internalField   nonuniform List<scalar> 
93840
(
0.990101
1.05169
0.985955
1.09288
1.04187
0.987507
0.914544
1.0832
1.00335
0.990258
0.99906
1.04211
1.05282
0.960634
0.99751
0.990526
1.02458
1.07667
1.05895
0.995466
1.00174
1.02043
0.991577
1.03216
1.00078
1.09332
1.01804
0.99574
1.00658
1.02023
0.988398
1.01921
1.00971
1.05099
1.01669
0.999307
1.02037
0.996189
1.01709
1.02025
1.02466
0.988342
1.05261
1.02825
1.00226
1.00134
1.01634
0.991896
1.00781
1.01324
1.01762
1.03513
1.04387
1.01736
1.00519
1.02359
0.993693
1.02109
1.00102
1.02832
1.00425
1.02773
1.02129
1.03887
1.02788
1.00711
1.00284
1.01914
0.996536
1.01009
1.00491
1.01047
1.01141
1.0224
1.0339
1.03905
1.01868
1.00888
1.02624
0.99897
1.02234
0.991513
1.01761
0.985542
1.00204
0.992031
1.0279
1.02387
1.03803
1.02757
1.0101
1.00373
1.02357
0.998502
1.01308
0.998253
0.992975
0.994484
1.01398
1.01755
1.02334
1.03314
1.03762
1.01905
1.01145
1.02802
1.00472
1.02754
1.00662
1.0183
0.99093
1.01024
0.978366
1.00112
0.989434
1.03007
1.02812
1.03613
1.02655
1.01243
1.00272
1.0311
1.00686
1.02426
1.00248
1.00712
0.999932
1.00329
0.996364
1.00573
1.01113
1.02511
1.03261
1.03537
1.0192
1.0136
1.02795
1.00921
1.03528
1.0057
1.02388
1.00211
1.00681
0.969177
1.00294
0.990401
1.00178
0.98724
1.0292
1.02801
1.03422
1.02583
1.0145
1.00474
1.03026
1.01039
1.02601
1.0059
1.0024
1.00179
1.00525
0.997065
1.00135
0.987353
1.01484
1.01686
1.02532
1.02927
1.03376
1.01943
1.01561
1.02191
1.00891
1.02859
1.00415
1.021
1.00952
1.00722
0.98531
1.00834
0.993901
1.00976
0.984574
1.00629
0.997118
1.02473
1.02673
1.03294
1.02535
1.01651
1.00126
1.02145
1.00675
1.02161
1.00987
1.00553
1.00031
1.00911
1.00285
1.01271
0.995636
1.00906
1.00049
1.00673
1.0171
1.02131
1.02848
1.03259
1.01982
1.01759
1.02053
1.00151
1.02706
1.0087
1.01997
1.00227
1.01106
0.990599
1.01949
0.998339
1.00832
0.992339
1.00996
0.993215
0.998613
0.999817
1.0195
1.02594
1.03212
1.02493
1.01849
0.997601
1.02347
1.0031
1.02128
1.00836
1.00984
0.998374
1.01686
0.994505
1.01681
0.99779
1.01394
0.996166
1.00524
0.994797
1.01249
1.00291
1.01842
1.02808
1.03186
1.02004
1.0194
1.02076
1.00033
1.02811
1.01033
1.01697
0.998584
1.00895
0.987077
1.01685
1.0007
1.01722
0.99257
1.01079
0.998259
1.0047
0.994169
1.00328
0.996625
1.02154
1.02535
1.03152
1.02467
1.02022
0.997125
1.02058
1.00952
1.01966
0.997214
1.00857
0.994292
1.02122
0.991763
1.01219
0.991531
1.01491
0.995817
1.01248
0.998382
1.00793
0.990453
1.00969
1.004
1.01943
1.02574
1.03126
1.02036
1.02108
1.02128
0.998238
1.02286
0.998643
1.01443
1.00202
1.00668
0.983482
1.00893
0.995945
1.01202
0.994324
1.01449
0.997547
1.00977
0.991931
1.00916
0.98895
1.00596
0.999785
1.02011
1.02494
1.03093
1.02458
1.02195
1.00126
1.01931
1.00707
1.01935
0.996006
1.00346
0.988014
1.01589
0.996965
1.01641
0.997577
1.01464
0.995263
1.01522
0.996079
1.01459
0.995528
1.01106
0.98851
1.00565
1.00783
1.01756
1.02531
1.0307
1.02089
1.02282
1.01963
0.998567
1.02184
0.997466
1.01188
1.00206
1.01007
0.990577
1.00868
0.992406
1.00684
0.992878
1.01356
0.997233
1.01268
0.998421
1.00561
0.997531
1.00673
0.988794
1.00626
1.0023
1.01655
1.02379
1.03043
1.02526
1.02364
1.00231
1.02392
1.00136
1.02004
1.00087
1.00488
0.987818
1.0107
1.00165
1.01101
0.998413
1.01271
0.994054
1.01412
0.998336
1.01155
0.996734
1.01032
0.99125
1.00884
0.994252
1.00472
1.0081
1.01844
1.02338
1.03035
1.02216
1.02451
1.02079
0.999113
1.02672
1.00408
1.00989
1.00114
1.01266
0.989957
1.00836
0.991008
1.00675
0.990934
1.00736
0.99419
1.01231
0.998628
1.01231
0.999741
1.00475
0.996318
1.00842
0.994641
1.0006
1.00313
1.01768
1.02291
1.03027
1.026
1.02537
1.00143
1.02374
1.00166
1.02043
1.00558
1.00901
0.993282
1.00729
0.998904
1.00688
0.999495
1.00963
0.996898
1.01042
0.996151
1.01327
1.00153
1.00835
0.995532
1.0073
0.994143
1.00426
0.996369
1.00014
1.00957
1.01752
1.02135
1.03049
1.02321
1.02617
1.02832
1.00042
1.02783
1.00891
1.01375
1.00259
1.01615
0.992209
1.00914
0.994123
1.00842
0.992969
1.00411
0.99133
1.00373
0.993659
1.01098
0.998536
1.00879
0.996592
1.00539
0.996925
1.00461
1.00037
1.00313
1.00407
1.01327
1.02087
1.03047
1.02697
1.02695
1.0045
1.0301
1.00178
1.02137
1.00764
1.01353
0.994876
1.00691
0.996535
1.01039
1.00222
1.00569
0.992964
1.00887
0.99514
1.00833
0.995029
1.01284
1.0012
1.00826
0.996052
1.00924
0.997776
1.00652
0.991913
1.00458
1.00508
1.01632
1.02058
1.03071
1.02455
1.02766
1.02969
1.00244
1.03039
1.01039
1.01908
1.00792
1.0183
0.997195
1.01538
0.998032
1.01032
0.993071
1.00499
0.988753
1.00494
0.992054
1.00613
0.999128
1.0085
0.997524
1.00797
0.994055
1.00492
0.993659
1.00462
0.999494
1.00548
1.00384
1.01897
1.02203
1.03063
1.02726
1.02833
1.0032
1.03412
1.00798
1.02243
1.00856
1.0167
0.995253
1.01178
0.996233
1.0153
0.997513
1.01348
0.995599
1.01198
0.997395
1.00929
0.990802
1.00498
0.994678
1.01278
0.998131
1.00935
0.994844
1.00891
0.99633
1.00249
0.993959
1.0058
1.00331
1.0204
1.02038
1.0308
1.0254
1.02899
1.03236
1.00465
1.02927
1.00763
1.0197
1.00985
1.02279
0.99753
1.01996
1.00402
1.01536
1.00177
1.00625
0.991855
1.00876
0.995989
1.00699
0.993509
1.00581
0.995826
1.00848
0.996518
1.00813
0.994533
1.00257
0.992965
1.00287
0.993435
1.00682
1.00387
1.0164
1.02074
1.03134
1.02364
1.02949
1.00673
1.03591
1.00782
1.02488
1.01345
1.02115
0.997711
1.01577
0.999147
1.01567
0.998651
1.01593
1.00103
1.01759
0.999516
1.00712
0.99388
1.0088
0.991359
1.01219
0.996713
1.0108
0.996301
1.00949
0.993959
1.01114
0.995589
1.00552
0.994082
1.00541
1.00367
1.01641
1.02028
1.03732
1.02166
1.02999
1.03279
1.00848
1.02741
1.01362
1.0213
1.00787
1.02353
0.998403
1.01954
1.0066
1.02068
1.00608
1.01329
0.999453
1.00803
1.00137
1.00808
0.994354
1.00914
0.988817
1.00561
0.99517
1.01
0.99463
1.0107
0.99133
1.00677
0.99293
1.0044
0.993749
1.00818
1.00069
1.01989
1.01838
1.03624
1.0246
1.03048
1.0065
1.03537
1.00734
1.02766
1.01458
1.02134
0.994826
1.01692
1.00542
1.01877
1.00032
1.01698
0.998597
1.01704
0.999781
1.01109
0.998031
1.00833
0.992279
1.00914
0.994152
1.0089
0.995959
1.01108
0.995121
1.01108
0.995828
1.01282
0.995187
1.00543
0.994034
1.01153
1.00209
1.02316
1.01952
1.03511
1.02276
1.031
1.03192
1.00881
1.02309
1.01521
1.02096
1.00081
1.02252
0.999751
1.0158
1.00317
1.01896
1.00745
1.01956
1.00674
1.01591
1.00266
1.00622
0.995439
1.00989
0.991023
1.00876
0.991165
1.00661
0.995114
1.01024
0.994759
1.0113
0.994011
1.00982
0.992697
1.0061
0.993957
1.01306
0.998674
1.024
1.02035
1.03435
1.02671
1.03153
1.0081
1.03581
1.0027
1.02593
1.01402
1.01846
0.991423
1.01163
1.00461
1.01541
1.00749
1.01618
1.0034
1.01996
0.995405
1.0131
1.00201
1.01603
0.998491
1.00805
0.993547
1.00638
0.992324
1.01304
0.996932
1.01481
0.996206
1.01058
0.995579
1.01175
0.992582
1.0055
0.993978
1.01378
1.00049
1.02663
1.02073
1.03454
1.01975
1.03193
1.02524
1.00465
1.02548
1.01632
1.01997
0.99337
1.01825
1.0006
1.01291
1.00028
1.01481
0.997859
1.01719
1.00841
1.02166
1.00812
1.01205
0.998969
1.01125
0.999366
1.01001
0.990782
1.00889
0.990864
1.00828
0.996125
1.01119
0.996642
1.01231
0.994901
1.01048
0.991933
1.00672
0.992161
1.01485
1.00016
1.02742
1.01829
1.03875
1.0225
1.03243
1.00228
1.03359
0.998116
1.01967
1.00582
1.01415
0.989649
1.00786
1.00309
1.0118
1.00221
1.01637
1.00615
1.01747
1.0033
1.01945
1.00166
1.01375
1.00244
1.01163
1.00003
1.00836
0.991084
1.00755
0.992628
1.01414
0.999511
1.01721
0.996281
1.01114
0.993469
1.0129
0.993425
1.00642
0.991834
1.00935
1.00137
1.02781
1.01835
1.03775
1.02167
1.03293
1.0228
1.0056
1.02557
1.01011
1.02008
0.992183
1.0159
1.0013
1.01039
0.997289
1.01573
1.00093
1.01757
1.00326
1.01799
1.00431
1.01699
1.00339
1.01605
1.00087
1.01252
0.997051
1.01119
0.988916
1.00884
0.991432
1.01121
0.998539
1.01055
0.997306
1.01361
0.993808
1.011
0.994428
1.00726
0.990138
1.01325
1.00273
1.02772
1.01846
1.03633
1.02419
1.03338
1.00154
1.02807
0.998756
1.01436
1.00457
1.01119
0.992324
1.00769
0.997863
1.01161
1.00035
1.0147
1.00258
1.01684
1.00511
1.01845
1.00516
1.02126
1.0012
1.01583
1.00068
1.01243
0.999567
1.01091
0.991196
1.00927
0.992989
1.01472
1.0014
1.01677
0.997233
1.01374
0.994627
1.01222
0.994513
1.00637
0.992883
1.01029
1.00234
1.02707
1.01945
1.03507
1.02245
1.03386
1.01802
1.00285
1.02486
1.00163
1.02093
0.987298
1.01576
1.00438
1.00787
0.999505
1.01177
1.00312
1.01494
1.0025
1.01751
1.0041
1.01897
1.00547
1.01928
1.00409
1.01838
0.999638
1.01468
0.995025
1.01207
0.992313
1.00798
0.992169
1.01098
1.00075
1.01081
0.998236
1.01513
0.993561
1.01053
0.993213
1.00922
0.990649
1.01181
0.999957
1.02536
1.01947
1.03426
1.02535
1.03435
0.996774
1.02413
1.00553
1.01384
1.00421
1.01254
0.999291
1.01255
0.995414
1.01177
1.00237
1.01122
1.00029
1.01178
1.00373
1.01609
1.00359
1.01838
1.00306
1.02049
1.00335
1.01742
1.00113
1.01687
0.998823
1.01275
0.99815
1.00853
0.994614
1.01298
1.00166
1.0164
0.998121
1.01465
0.994597
1.01291
0.994987
1.01188
0.990047
1.01528
1.00192
1.02586
1.01911
1.03443
1.0202
1.03474
1.02184
1.00296
1.02419
0.996975
1.02318
0.989558
1.01577
1.00848
1.00603
1.00711
1.0082
1.00325
1.01215
1.00012
1.01299
1.00198
1.01594
1.00295
1.02005
1.00493
1.02063
1.00381
1.01901
1.00016
1.0147
0.996704
1.01131
0.996667
1.008
0.996297
1.01089
1.00135
1.01172
0.999802
1.01445
0.995542
1.01289
0.992555
1.0066
0.99208
1.01467
1.00221
1.0288
1.0206
1.03855
1.02257
1.03513
0.99818
1.02276
1.01106
1.01741
1.00911
1.01588
1.00405
1.0151
0.99961
1.01487
1.00513
1.01025
1.00283
1.01198
1.00284
1.01127
1.00462
1.01683
1.00098
1.01869
1.00457
1.0183
1.00394
1.01763
1.00269
1.01875
1.00294
1.01045
0.993577
1.0091
0.995826
1.01102
1.00134
1.01541
1.00077
1.01407
0.996978
1.0145
0.992038
1.0108
0.989306
1.01574
1.00177
1.02595
1.01715
1.03756
1.02192
1.03551
1.02553
1.00102
1.0241
1.00119
1.02192
0.98946
1.0149
1.01056
1.00911
1.01002
1.00461
1.0063
1.00902
1.00195
1.01108
1.00259
1.01033
1.00317
1.01507
1.00387
1.02086
1.00787
1.02045
1.0042
1.01943
1.00219
1.01537
0.997098
1.01106
0.99581
1.00835
0.996602
1.01052
1.00069
1.01347
1.00186
1.01451
0.99723
1.01331
0.99454
1.00973
0.992571
1.01744
1.0028
1.02987
1.02011
1.03628
1.02351
1.03588
1.00686
1.0265
1.01061
1.02104
1.01215
1.01838
1.0067
1.01537
1.00304
1.01214
1.00696
1.0145
1.0045
1.01146
1.00284
1.01002
1.00636
1.0096
1.00166
1.01486
1.0039
1.0194
1.00938
1.01932
1.0038
1.01912
1.00374
1.02178
1.00078
1.01006
0.994437
1.01065
0.997555
1.0104
1.00061
1.01618
1.00238
1.014
0.994746
1.01747
0.993982
1.00684
0.988629
1.01776
1.00139
1.02525
1.01801
1.03531
1.02311
1.03622
1.0239
0.997092
1.02656
1.00994
1.02232
0.995471
1.01625
1.00887
1.01142
1.00772
1.00867
1.00758
1.00646
1.00504
1.00726
1.00239
1.00842
1.00287
1.0077
1.00271
1.01382
1.00574
1.01983
1.00736
1.01929
1.00551
1.01892
1.00208
1.01359
1.00171
1.01205
0.998559
1.00759
0.996086
1.01033
0.999523
1.01507
1.00292
1.01329
0.99748
1.01291
0.993809
1.01168
0.992601
1.01875
0.998169
1.03041
1.02201
1.03528
1.01987
1.03652
1.01122
1.03347
1.01001
1.02061
1.00844
1.01533
1.00378
1.01176
1.00216
1.00871
1.0056
1.01098
1.00516
1.01335
1.00419
1.01144
1.00451
1.00715
1.00317
1.00958
1.00416
1.01251
1.00286
1.01956
1.00875
1.0201
1.00601
1.01946
1.00474
1.01596
0.999239
1.01017
0.99671
1.01032
0.996309
1.01092
1.00022
1.01774
1.00328
1.01465
0.996807
1.01676
0.994873
1.01033
0.991443
1.01728
0.999357
1.0247
1.02015
1.03857
1.01916
1.03684
1.02358
1.01049
1.02786
1.01599
1.02141
0.998634
1.01377
1.00489
1.01206
1.00844
1.01018
1.00717
1.01037
1.00353
1.00842
1.00673
1.00639
1.00578
1.00674
1.00322
1.00979
1.00515
1.01234
1.00565
1.01773
1.00836
1.01978
1.00456
1.01766
1.00632
1.01667
1.00322
1.01261
0.998166
1.00598
0.998236
1.01188
0.998631
1.01602
1.00258
1.01285
0.998682
1.01367
0.99322
1.00928
0.989049
1.01831
1.00016
1.0296
1.0201
1.03768
1.02069
1.03722
1.01388
1.03365
1.00865
1.01967
1.00641
1.01548
1.00169
1.0113
1.00249
1.00613
1.00236
1.00861
1.0063
1.01316
1.00471
1.01307
1.00473
1.00984
1.00437
1.00681
1.00233
1.00921
1.00394
1.012
1.00511
1.01907
1.00854
1.01927
1.00966
1.01887
1.00635
1.01611
1.00302
1.00992
0.998448
1.01118
0.996907
1.01147
0.999336
1.01813
1.00242
1.01782
0.997066
1.01476
0.997394
1.01445
0.989659
1.01514
1.0009
1.02514
1.01821
1.03671
1.02081
1.03755
1.01949
1.0133
1.03275
1.01343
1.01708
1.00058
1.00993
1.00353
1.00743
1.00579
1.01018
1.00713
1.01206
1.00607
1.01264
1.00373
1.00893
1.00462
1.00786
1.00448
1.00695
1.0029
1.00793
1.00376
1.01152
1.01018
1.01847
1.00835
1.02074
1.00475
1.01671
1.00341
1.01647
1.00372
1.01219
0.997349
1.00755
0.999319
1.01231
0.999869
1.01527
1.00252
1.01396
0.998123
1.01294
0.99487
1.01272
0.992294
1.01508
1.00152
1.02782
1.0205
1.03592
1.02199
1.03791
1.01861
1.03346
1.01105
1.01994
1.0042
1.01441
0.997638
1.01042
1.00289
1.00394
0.999573
1.00609
1.0017
1.01039
1.00534
1.01463
1.00243
1.01333
1.00644
1.00974
1.00418
1.00681
1.00233
1.00852
1.00446
1.01116
1.00792
1.01803
1.0093
1.01926
1.01112
1.02065
1.00685
1.01592
1.00475
1.01144
1.0003
1.01083
0.998548
1.0118
0.999375
1.01989
1.0012
1.01879
0.997004
1.0138
0.998164
1.01501
0.994413
1.01393
1.00126
1.02604
1.01965
1.03532
1.02147
1.03821
1.01431
1.01505
1.03375
1.01279
1.01659
1.00251
1.00778
1.00397
1.00575
1.00433
1.00655
1.00261
1.00857
1.00551
1.01202
1.00431
1.0137
1.00513
1.0095
1.00394
1.00504
1.0024
1.00776
1.00236
1.0081
1.00413
1.01085
1.00658
1.01804
1.0097
1.02081
1.00538
1.01749
1.00914
1.01688
1.00201
1.01198
0.99912
1.00797
0.999402
1.01164
0.99882
1.01286
1.00162
1.01562
0.997803
1.0129
0.995221
1.01432
0.996742
1.01422
1.00173
1.02644
1.02019
1.03466
1.02294
1.0386
1.01489
1.03186
1.01241
1.02167
1.00287
1.01423
0.997459
1.01007
1.00508
1.00331
0.99891
1.00473
1.00436
1.00661
1.00342
1.01186
1.00588
1.01387
1.00665
1.01215
1.0037
1.01141
1.00328
1.00669
1.00155
1.00961
1.00552
1.012
1.00769
1.01768
1.00976
1.02034
1.01327
1.01764
1.00745
1.01617
1.00606
1.0121
1.00106
1.00987
1.00043
1.01298
1.00029
1.0189
1.00075
1.02032
1.00101
1.01301
0.998771
1.01681
0.998732
1.01456
1.00553
1.02358
1.01951
1.03432
1.02284
1.03893
1.01755
1.01401
1.03303
1.01277
1.01654
1.00082
1.00563
1.00159
1.00726
1.0027
1.00397
1.00285
1.00586
1.00221
1.00853
1.00594
1.01235
1.00659
1.01346
1.00693
1.00979
1.00358
1.00839
1.00214
1.00791
1.00163
1.00812
1.00308
1.0101
1.01176
1.01711
1.01072
1.02092
1.00845
1.01853
1.00761
1.01675
1.0035
1.01174
1.00226
1.00832
0.999569
1.00979
0.998071
1.01313
1.0001
1.01783
0.999762
1.01441
0.997347
1.01393
0.996763
1.01411
1.00313
1.02475
1.02216
1.0346
1.02014
1.03927
1.01134
1.03302
1.0158
1.01794
1.0025
1.0131
0.999619
1.01003
1.01069
1.00592
0.999924
1.0008
1.00306
1.00452
1.0047
1.00731
1.00475
1.01068
1.00825
1.01271
1.00579
1.01227
1.0032
1.01157
1.0026
1.00685
1.00138
1.00917
1.00513
1.0102
1.00755
1.01694
1.01062
1.02054
1.01159
1.01771
1.00848
1.01618
1.00693
1.01136
1.00179
1.00849
1.00004
1.01373
0.999344
1.01935
0.999822
1.02159
1.00383
1.01488
1.00152
1.01609
1.00271
1.01403
1.00979
1.02357
1.02308
1.03791
1.01976
1.03958
1.01981
1.01262
1.03264
1.01462
1.01661
0.996239
1.00576
0.999571
1.00973
1.00263
1.00281
1.00459
1.00259
1.00154
1.00383
1.00271
1.00904
1.00772
1.01071
1.0094
1.01255
1.00732
1.01148
1.00436
1.00761
1.00097
1.00805
1.00051
1.00929
1.003
1.01184
1.00992
1.01658
1.01011
1.02137
1.00885
1.01823
1.00706
1.01573
1.00513
1.01082
1.00319
1.00747
0.998711
1.01128
0.997735
1.01502
0.999745
1.01857
0.997811
1.01542
0.998544
1.0147
1.00099
1.01412
1.00517
1.02397
1.02163
1.03708
1.02036
1.03994
1.01414
1.03082
1.01596
1.01889
1.00454
1.01382
1.00427
1.01055
1.01484
1.01062
1.0062
1.00316
1.00238
0.998574
1.00234
1.00275
1.00757
1.00686
1.00707
1.01014
1.01062
1.01295
1.00715
1.0121
1.00433
1.01103
1.00191
1.00746
1.00113
1.00774
1.00412
1.01247
1.0099
1.01572
1.01051
1.02004
1.01183
1.01841
1.00983
1.01526
1.00844
1.01039
1.00244
1.00842
0.998592
1.01367
0.998177
1.02139
1.00044
1.01961
1.00449
1.01717
1.00111
1.01561
0.999797
1.01322
1.00821
1.02419
1.02312
1.03616
1.0199
1.04027
1.01755
1.01141
1.03011
1.01391
1.01839
0.995643
1.01003
0.999773
1.01103
1.00484
1.00559
1.00488
1.00267
1.00271
1.00293
1.00057
1.00402
1.00385
1.00716
1.00813
1.01083
1.00967
1.01194
1.0079
1.0118
1.00286
1.00836
1.00112
1.00834
1.00246
1.00859
1.00301
1.01071
1.00972
1.01552
1.01177
1.02106
1.00996
1.01853
1.00704
1.01475
1.00709
1.01011
1.00182
1.00726
0.997581
1.01272
0.997156
1.01615
1.00051
1.01784
0.998267
1.01689
0.999838
1.01407
1.00744
1.01298
1.00819
1.02401
1.02144
1.03555
1.02128
1.04061
1.01191
1.0322
1.01785
1.01638
1.00877
1.016
1.00864
1.01077
1.01622
1.01442
1.01342
1.00779
1.00717
1.00139
1.00474
1.00004
1.00319
1.00224
1.00752
1.00695
1.00704
1.01031
1.0107
1.01148
1.00865
1.01149
1.00465
1.00925
1.00376
1.00816
1.0013
1.0103
1.00486
1.0125
1.00909
1.01651
1.01138
1.01937
1.01315
1.01768
1.01137
1.01422
1.00832
1.00979
1.00243
1.00822
0.997757
1.01365
0.999156
1.0221
1.00195
1.01962
1.00421
1.01909
1.00208
1.01535
1.00357
1.01236
1.00822
1.02338
1.02515
1.03564
1.01746
1.04098
1.01787
1.01279
1.02924
1.01015
1.0148
0.996841
1.01531
0.999817
1.01277
1.00883
1.00878
1.00802
1.00372
1.00391
1.00485
1.00157
1.00385
1.00048
1.0031
1.00493
1.00828
1.00882
1.00945
1.0094
1.01185
1.00725
1.01044
1.00445
1.00925
1.00261
1.00782
1.00358
1.00917
1.00591
1.01061
1.01074
1.01463
1.01301
1.01993
1.01053
1.01774
1.00905
1.01356
1.00892
1.00879
1.00142
1.00749
0.996917
1.01515
0.997096
1.01441
1.00193
1.01663
0.995956
1.01788
1.00016
1.01284
1.00352
1.01141
1.0078
1.02237
1.02083
1.03822
1.01831
1.04131
1.01223
1.02999
1.01738
1.0188
1.01358
1.01761
1.01104
1.01053
1.01755
1.0171
1.01637
1.01291
1.01348
1.00734
1.00748
1.00195
1.0056
1.00084
1.00333
1.00312
1.00862
1.00561
1.00766
1.00871
1.01161
1.0117
1.00825
1.01103
1.0077
1.00923
1.00539
1.00815
1.00286
1.00829
1.00595
1.01181
1.01004
1.01559
1.0124
1.01866
1.01593
1.01827
1.0129
1.01326
1.00798
1.0089
1.00145
1.00723
0.996078
1.01424
0.999487
1.02206
1.00269
1.01974
1.0069
1.01893
1.0063
1.01389
1.00559
1.01022
1.00832
1.0206
1.02175
1.03754
1.01904
1.04172
1.01633
1.01383
1.02858
1.00909
1.01876
0.998133
1.01972
1.0018
1.01425
1.01098
1.01146
1.01304
1.01156
1.00796
1.00719
1.00374
1.00379
1.0023
1.00303
1.0018
1.00191
1.00462
1.00685
1.00911
1.01011
1.00981
1.01156
1.00776
1.00925
1.00536
1.0079
1.00344
1.00772
1.00505
1.00883
1.00811
1.01015
1.00918
1.01498
1.01432
1.02055
1.00949
1.01576
1.00931
1.01301
1.0086
1.00922
1.00087
1.00829
0.995844
1.01528
1.00016
1.01497
1.00344
1.01689
0.99687
1.01834
1.00397
1.01353
1.00498
1.00932
1.00826
1.01923
1.02016
1.0367
1.02029
1.0421
1.01341
1.02908
1.01851
1.02007
1.00956
1.01922
1.01447
1.01021
1.01718
1.01716
1.0185
1.01711
1.01646
1.01073
1.00951
1.0053
1.00721
1.0008
1.00542
1.00175
1.00623
1.00455
1.00897
1.00567
1.00725
1.00955
1.01143
1.01247
1.0099
1.01015
1.00959
1.00854
1.00642
1.00754
1.00435
1.00861
1.00697
1.01132
1.00967
1.01442
1.01334
1.01885
1.01549
1.01812
1.0113
1.01275
1.00915
1.00894
1.00079
1.00792
0.997037
1.01471
1.00038
1.0223
1.00323
1.01985
1.00623
1.01834
1.00926
1.01275
1.00817
1.0087
1.00796
1.01888
1.02159
1.03586
1.02025
1.04251
1.01667
1.01156
1.02531
1.0107
1.0242
1.00366
1.02361
1.00319
1.01599
1.01299
1.01198
1.0151
1.01123
1.01291
1.01011
1.00914
1.0069
1.00379
1.00345
1.0015
1.00339
1.00332
1.00425
1.00502
1.00556
1.00856
1.00884
1.00882
1.01143
1.00901
1.00963
1.00512
1.00811
1.00391
1.00708
1.00607
1.00845
1.00764
1.01131
1.01217
1.01381
1.01425
1.01955
1.00838
1.01566
1.00998
1.01232
1.00768
1.00803
1.0014
1.00769
0.998134
1.01519
1.00189
1.01455
1.00622
1.01706
1.00196
1.01832
1.00543
1.01245
1.00434
1.00791
1.00796
1.019
1.02102
1.035
1.02118
1.0429
1.01176
1.02742
1.01794
1.01856
1.00871
1.02039
1.01681
1.00841
1.01684
1.01705
1.02043
1.0175
1.01819
1.01549
1.01577
1.01211
1.01021
1.00489
1.00921
1.00256
1.00726
1.00267
1.00631
1.0054
1.00748
1.00455
1.00758
1.00764
1.01141
1.01132
1.01041
1.00964
1.00902
1.00775
1.0074
1.0072
1.00597
1.00862
1.00783
1.0111
1.00921
1.01331
1.01319
1.01634
1.01664
1.01576
1.01264
1.01176
1.00965
1.00811
1.00123
1.00913
0.998158
1.01533
1.00041
1.01681
1.00575
1.02048
1.0072
1.01826
1.01229
1.01214
1.00374
1.00713
1.00781
1.02033
1.01972
1.03444
1.02176
1.04329
1.01801
1.01197
1.02581
1.01275
1.02751
1.00744
1.02392
1.00205
1.01623
1.01566
1.01184
1.01458
1.0131
1.0154
1.01233
1.01406
1.01044
1.01084
1.00458
1.00427
1.00427
1.00198
1.00235
1.00286
1.00486
1.00492
1.00668
1.00777
1.00779
1.01003
1.01044
1.00889
1.00915
1.00678
1.00756
1.0046
1.00631
1.00731
1.00843
1.00773
1.01007
1.01107
1.01249
1.01382
1.01705
1.01092
1.01529
1.01208
1.01108
1.00668
1.00852
1.00085
1.00927
0.999355
1.01494
1.00477
1.01682
1.00623
1.01635
1.00408
1.01833
1.00575
1.0116
1.00761
1.00718
1.0076
1.02161
1.02127
1.03441
1.01898
1.04365
1.01153
1.02783
1.02014
1.0182
1.01066
1.02172
1.01784
1.00696
1.01706
1.01792
1.01747
1.01808
1.02018
1.01764
1.01844
1.01531
1.01662
1.01225
1.01066
1.00635
1.00868
1.00296
1.00694
1.0031
1.00761
1.00486
1.00803
1.00612
1.00669
1.00959
1.01139
1.00984
1.00859
1.00986
1.00919
1.00713
1.00687
1.00782
1.00689
1.00789
1.00737
1.01038
1.01043
1.01314
1.0133
1.01664
1.01595
1.01454
1.01448
1.01033
1.0096
1.00905
1.00037
1.01041
1.00024
1.01499
1.00267
1.01717
1.00708
1.0211
1.00906
1.01819
1.01252
1.01096
1.00455
1.0076
1.00762
1.02162
1.02179
1.03682
1.01897
1.044
1.01743
1.0125
1.02458
1.01154
1.02891
1.00864
1.02245
1.00018
1.01541
1.01507
1.01022
1.01426
1.01254
1.01553
1.01506
1.01449
1.01249
1.01263
1.00996
1.01217
1.00587
1.00546
1.00337
1.00275
1.00214
1.00376
1.005
1.00502
1.00733
1.0097
1.00934
1.01072
1.0094
1.00958
1.00906
1.00742
1.00657
1.00508
1.00696
1.00698
1.00791
1.00707
1.01119
1.0105
1.01202
1.01344
1.01769
1.01176
1.01369
1.01067
1.00962
1.00543
1.00718
1.00155
1.01031
1.0007
1.01532
1.00438
1.0167
1.00523
1.01729
1.00752
1.01772
1.00688
1.01039
1.00473
1.00882
1.00778
1.02079
1.02133
1.03612
1.02022
1.04439
1.01152
1.02655
1.02107
1.01602
1.01281
1.02285
1.01743
1.00666
1.01806
1.01642
1.01741
1.01597
1.0192
1.01743
1.01951
1.01569
1.0188
1.01404
1.01661
1.01174
1.01011
1.00536
1.00711
1.00347
1.00677
1.00456
1.00761
1.00623
1.00839
1.00817
1.00591
1.00828
1.01021
1.00926
1.00907
1.00956
1.00824
1.00642
1.00525
1.00722
1.00618
1.00745
1.0066
1.0107
1.01026
1.01212
1.01546
1.01685
1.0169
1.01299
1.01306
1.00912
1.00919
1.00987
1.00073
1.01035
1.00073
1.0147
1.00287
1.01648
1.00559
1.02157
1.01045
1.017
1.01349
1.01017
1.00427
1.00898
1.00782
1.02016
1.02107
1.03512
1.0198
1.0447
1.01685
1.01234
1.02099
1.01057
1.02818
1.00844
1.01998
1.00008
1.01361
1.01313
1.00874
1.01371
1.01232
1.01404
1.01345
1.01676
1.01437
1.01446
1.01269
1.0131
1.00932
1.01143
1.00586
1.004
1.00349
1.00354
1.00213
1.00366
1.00703
1.0045
1.00709
1.01056
1.00916
1.00979
1.01008
1.00815
1.0096
1.00845
1.00686
1.00523
1.00734
1.00744
1.00773
1.00595
1.01096
1.00998
1.01266
1.01297
1.01653
1.01185
1.01258
1.01201
1.00861
1.00724
1.00829
0.99979
1.0109
1.00124
1.01472
1.00295
1.01573
1.00626
1.01638
1.00997
1.01635
1.00564
1.00962
1.00493
1.00835
1.00726
1.02097
1.02055
1.03435
1.02094
1.04505
1.01149
1.02659
1.0193
1.0177
1.01859
1.02308
1.01667
1.0067
1.01606
1.01436
1.01758
1.01482
1.01855
1.01683
1.01922
1.01651
1.01844
1.01438
1.01833
1.01302
1.01603
1.01083
1.0108
1.00639
1.00803
1.00334
1.00812
1.00557
1.0083
1.00565
1.00921
1.00854
1.0069
1.00929
1.01074
1.00988
1.00913
1.00889
1.00793
1.00688
1.00514
1.00655
1.00693
1.00765
1.00548
1.01065
1.00994
1.0122
1.01399
1.01528
1.01506
1.01243
1.0115
1.008
1.00683
1.00837
1.00036
1.01105
1.00223
1.01416
1.00423
1.01544
1.00439
1.01866
1.0102
1.01534
1.01386
1.00878
1.00599
1.00808
1.00664
1.02206
1.02001
1.03436
1.01776
1.0454
1.01667
1.01468
1.02716
1.00981
1.02804
1.00668
1.01742
0.999382
1.01027
1.01281
1.0091
1.01044
1.01242
1.01023
1.01116
1.01474
1.01417
1.0158
1.01456
1.0149
1.01335
1.01193
1.00901
1.01159
1.00717
1.00415
1.00311
1.00417
1.00324
1.0042
1.0072
1.00556
1.00802
1.01016
1.00882
1.00919
1.00962
1.00821
1.00956
1.00784
1.00803
1.00476
1.00689
1.00704
1.00832
1.0054
1.01247
1.00977
1.01167
1.01303
1.01479
1.01006
1.01219
1.01144
1.0073
1.00642
1.00938
0.999812
1.01063
1.00287
1.01356
1.00736
1.01463
1.00512
1.01811
1.01189
1.01421
1.00556
1.00763
1.0056
1.00847
1.00557
1.0225
1.01947
1.03679
1.01836
1.0457
1.01291
1.02671
1.01877
1.0186
1.02062
1.0216
1.016
1.00685
1.01404
1.0133
1.01767
1.01261
1.01665
1.01209
1.01707
1.01435
1.0186
1.01631
1.01763
1.01546
1.01649
1.01276
1.01625
1.01132
1.01029
1.00568
1.00982
1.00377
1.00706
1.00567
1.0093
1.0067
1.00918
1.0084
1.00768
1.0097
1.00991
1.00941
1.00874
1.00874
1.00843
1.00726
1.00533
1.00721
1.00759
1.00793
1.00531
1.01205
1.00942
1.01217
1.01376
1.01407
1.01851
1.01197
1.01111
1.00684
1.00579
1.00896
0.999608
1.0109
1.00286
1.01359
1.00456
1.01428
1.00558
1.01749
1.01054
1.01321
1.01388
1.00645
1.00562
1.00839
1.00415
1.02407
1.01808
1.03625
1.01869
1.04608
1.01572
1.0178
1.02788
1.00738
1.02819
1.00457
1.01528
0.999808
1.00731
1.01196
1.00996
1.00942
1.00954
1.01074
1.0118
1.01075
1.01217
1.01428
1.01384
1.01442
1.01497
1.01568
1.01268
1.01327
1.0084
1.01108
1.0076
1.00414
1.00328
1.00322
1.00374
1.00498
1.0073
1.0054
1.00786
1.01162
1.00967
1.00865
1.01035
1.00883
1.00832
1.00896
1.008
1.00512
1.00738
1.0068
1.00756
1.00431
1.01007
1.00898
1.01227
1.01284
1.01458
1.00958
1.01172
1.01045
1.00723
1.00524
1.00957
1.00027
1.01011
1.00451
1.01318
1.00788
1.01378
1.00677
1.01681
1.01183
1.01244
1.00725
1.00545
1.00502
1.0097
1.00248
1.02523
1.01953
1.03567
1.01993
1.04634
1.01275
1.0251
1.02244
1.0222
1.02234
1.01584
1.01464
1.00637
1.01196
1.01202
1.01571
1.01131
1.01482
1.00954
1.0163
1.01224
1.01692
1.01354
1.01545
1.0145
1.01755
1.01542
1.01616
1.01226
1.0157
1.01087
1.00986
1.00618
1.0076
1.00316
1.00859
1.00566
1.00904
1.00603
1.00896
1.00776
1.00822
1.00857
1.00983
1.00951
1.00888
1.00809
1.00756
1.00606
1.00586
1.00674
1.00706
1.00778
1.00476
1.01197
1.00898
1.01303
1.01296
1.01431
1.01405
1.01143
1.00983
1.00746
1.00468
1.01073
0.999997
1.01037
1.0045
1.01271
1.00393
1.01377
1.00808
1.016
1.01096
1.01165
1.00831
1.00478
1.00415
1.01134
1.00137
1.0243
1.02014
1.03513
1.01977
1.04667
1.01599
1.01897
1.02563
1.00538
1.02525
1.00731
1.01346
1.00176
1.00439
1.0116
1.01009
1.0081
1.0097
1.00853
1.01037
1.00911
1.01141
1.01123
1.01206
1.01515
1.01461
1.01393
1.01473
1.01509
1.0115
1.01311
1.00876
1.01079
1.00579
1.00489
1.00339
1.00478
1.00527
1.006
1.00723
1.0057
1.00858
1.01026
1.01222
1.01013
1.00987
1.00875
1.00944
1.00892
1.00785
1.00497
1.0074
1.0059
1.00745
1.00583
1.00928
1.00902
1.01326
1.01273
1.01456
1.01282
1.01098
1.00931
1.00778
1.00413
1.01061
1.00075
1.00979
1.00382
1.01242
1.00738
1.01296
1.00865
1.01507
1.01208
1.0111
1.00764
1.00445
1.00326
1.0122
1.00177
1.02377
1.02012
1.0346
1.0207
1.0469
1.01293
1.02288
1.0237
1.02218
1.02146
1.01788
1.01386
1.0072
1.00981
1.01115
1.01434
1.00991
1.01329
1.00789
1.01654
1.0094
1.01421
1.01062
1.01731
1.01296
1.01577
1.01353
1.01851
1.01472
1.01604
1.01168
1.0159
1.01123
1.01066
1.00684
1.00803
1.00336
1.00882
1.00611
1.00937
1.00629
1.00936
1.00836
1.00888
1.00711
1.00882
1.00886
1.00853
1.00949
1.00683
1.00688
1.00586
1.00677
1.00632
1.00715
1.00526
1.01162
1.00908
1.01278
1.01219
1.01391
1.01286
1.0109
1.00889
1.00838
1.00361
1.0121
1.00095
1.00945
1.00432
1.01224
1.00592
1.01319
1.0095
1.01408
1.00965
1.01067
1.00652
1.0052
1.0026
1.01242
1.00224
1.02426
1.0207
1.03402
1.02099
1.04717
1.0155
1.02016
1.02682
1.00774
1.02334
0.999914
1.01181
1.00359
1.00304
1.01212
1.00928
1.00825
1.00814
1.00677
1.0087
1.00786
1.0097
1.00958
1.00985
1.01311
1.01321
1.01535
1.01493
1.01397
1.01404
1.01549
1.0123
1.0123
1.00865
1.00962
1.00619
1.00532
1.00345
1.00548
1.00526
1.00532
1.00748
1.00669
1.00833
1.01034
1.0105
1.00973
1.00912
1.00769
1.00867
1.00934
1.00683
1.00495
1.00678
1.00602
1.00693
1.00561
1.01028
1.00892
1.01381
1.0116
1.01511
1.01227
1.01113
1.0084
1.00976
1.00328
1.01129
1.00193
1.00945
1.00397
1.01192
1.00711
1.01292
1.00958
1.01323
1.01211
1.01033
1.00571
1.00656
1.00171
1.01281
1.00191
1.02405
1.01946
1.03346
1.02088
1.04735
1.01222
1.02065
1.02356
1.02281
1.01989
1.01788
1.01207
1.00748
1.00715
1.011
1.01277
1.00856
1.01288
1.00747
1.01342
1.00781
1.0111
1.00905
1.01556
1.0099
1.01549
1.0136
1.01609
1.01357
1.01774
1.01447
1.01716
1.01197
1.01577
1.01115
1.00919
1.00605
1.00902
1.00365
1.00897
1.00579
1.00927
1.00707
1.00902
1.00857
1.00854
1.00858
1.00947
1.00842
1.00875
1.00851
1.00839
1.00742
1.00641
1.00748
1.00633
1.0065
1.00637
1.01112
1.00957
1.01413
1.01125
1.01347
1.01223
1.0109
1.00784
1.01086
1.00297
1.01206
1.00262
1.00943
1.00422
1.01162
1.00755
1.01236
1.01061
1.01248
1.01041
1.01071
1.00533
1.00772
1.00067
1.01252
1.00262
1.02386
1.02057
1.03308
1.02164
1.0476
1.01461
1.01943
1.02602
1.01164
1.02335
1.00171
1.01139
1.00539
1.00224
1.01409
1.00954
1.01105
1.00688
1.00971
1.00766
1.00795
1.00794
1.01009
1.00995
1.01041
1.01068
1.01306
1.01312
1.01488
1.01358
1.01504
1.01414
1.01499
1.01241
1.01183
1.00905
1.0087
1.00586
1.00528
1.00363
1.00456
1.00533
1.00525
1.00797
1.0079
1.00837
1.00938
1.01018
1.009
1.0088
1.00902
1.00926
1.00855
1.0073
1.00546
1.00731
1.00614
1.00632
1.00658
1.01028
1.00934
1.01326
1.01097
1.01423
1.01172
1.0109
1.00735
1.01081
1.00365
1.01131
1.00243
1.00937