/*--------------------------------*- C++ -*----------------------------------*\
| =========                 |                                                 |
| \\      /  F ield         | OpenFOAM: The Open Source CFD Toolbox           |
|  \\    /   O peration     | Version:  2206                                  |
|   \\  /    A nd           | Website:  www.openfoam.com                      |
|    \\/     M anipulation  |                                                 |
\*---------------------------------------------------------------------------*/
FoamFile
{
    version     2.0;
    format      ascii;
    arch        "LSB;label=32;scalar=64";
    class       volScalarField;
    location    "180";
    object      TMean;
}
// * * * * * * * * * * * * * * * * * * * * * * * * * * * * * * * * * * * * * //

dimensions      [0 0 0 1 0 0 0];

internalField   nonuniform List<scalar> 
93840
(
1.01532
1.03012
1.03522
1.06342
1.00702
1.05612
0.90923
1.05269
1.0117
1.04592
0.992136
0.971389
1.03218
0.995258
1.03862
0.993515
1.00908
0.992301
1.04584
0.993211
1.04205
1.02339
0.983155
1.01038
0.960895
1.06079
1.01006
1.0333
1.01005
1.02566
0.974908
1.01338
0.981888
1.03309
1.00254
1.02245
1.02459
0.997798
1.0266
0.999497
1.02818
0.982696
1.02607
1.00925
1.02249
1.00644
1.02099
0.989452
1.02228
0.989629
1.01743
0.999655
1.02737
1.00397
1.01645
1.02406
0.999364
1.02116
1.00539
1.02189
0.994222
1.02551
1.0038
1.01738
1.00698
1.02148
1.00418
1.02267
0.990565
1.01396
0.988833
1.02114
0.999392
1.01461
1.00516
1.02158
1.0056
1.02208
1.02778
1.00145
1.02416
1.00463
1.01394
0.997737
1.01802
1.00089
1.01869
1.00775
1.01388
1.00594
1.02027
1.00465
1.02729
0.993996
1.01606
0.997307
1.01738
0.992539
1.01241
1.00647
1.01259
1.00431
1.02115
1.00514
1.02213
1.02542
1.00252
1.02659
1.00786
1.01701
1.00508
1.01762
1.00103
1.01463
1.00326
1.01681
1.00869
1.01349
1.00498
1.02014
1.00281
1.0259
0.998857
1.02118
1.00682
1.02215
1.00264
1.01761
1.00012
1.00915
1.00499
1.01214
1.00402
1.02011
1.00498
1.02192
1.02354
1.00137
1.0251
1.01052
1.021
1.01133
1.02185
1.009
1.0165
1.00339
1.01336
1.00409
1.01603
1.00932
1.01357
1.00444
1.01955
1.00187
1.02507
0.999744
1.01968
1.00705
1.02107
1.00782
1.02209
1.00712
1.01638
1.00131
1.00724
1.0045
1.01221
1.00388
1.01927
1.00496
1.02138
1.02151
1.00124
1.02194
1.00891
1.01737
1.00891
1.01998
1.01131
1.02022
1.01095
1.01638
1.0046
1.01206
1.00477
1.01514
1.01011
1.01342
1.00408
1.01913
1.00179
1.02255
0.999323
1.01677
1.0057
1.01775
1.0071
1.01922
1.00934
1.02088
1.0085
1.01584
1.003
1.00647
1.00386
1.01201
1.00438
1.01825
1.00502
1.02113
1.02054
1.00102
1.01874
1.00828
1.01521
1.00823
1.01802
1.00927
1.01852
1.01158
1.0198
1.01229
1.01641
1.0058
1.01092
1.00508
1.01393
1.01088
1.0133
1.0039
1.01867
1.00072
1.0211
0.999954
1.01362
1.00373
1.01417
1.00556
1.01676
1.00839
1.01809
1.00979
1.01987
1.00954
1.01482
1.00394
1.00642
1.00372
1.01193
1.0047
1.01733
1.0052
1.02128
1.02003
1.00001
1.01578
1.00676
1.01212
1.00637
1.01512
1.00825
1.01703
1.00925
1.01789
1.01251
1.01943
1.0131
1.01675
1.00566
1.01006
1.0055
1.01306
1.01159
1.01308
1.00392
1.01779
0.999645
1.01912
0.999038
1.00996
1.00261
1.01082
1.00331
1.01328
1.00675
1.01594
1.00844
1.01588
1.01075
1.01874
1.01038
1.01381
1.00554
1.00603
1.00389
1.01182
1.00528
1.01661
1.00544
1.02144
1.01917
0.998782
1.01191
1.0042
1.0083
1.00404
1.01195
1.00675
1.01358
1.00796
1.01604
1.01132
1.01736
1.01282
1.01898
1.01353
1.01697
1.00637
1.00928
1.00604
1.0121
1.01211
1.01275
1.00344
1.01566
1.00022
1.01845
0.998976
1.00748
1.00168
1.00775
1.00177
1.01009
1.00407
1.01207
1.00703
1.01395
1.00963
1.01549
1.01091
1.01758
1.01113
1.01294
1.00644
1.00572
1.00408
1.01155
1.00547
1.01585
1.00448
1.01385
1.02028
1.00136
1.01263
1.00566
1.00784
1.00413
1.01049
1.00625
1.01105
1.0067
1.01242
1.00924
1.01561
1.01148
1.01675
1.01371
1.01894
1.01442
1.01656
1.00733
1.00898
1.00632
1.01141
1.01235
1.01234
1.00563
1.01676
1.00253
1.0199
1.00247
1.00818
1.00346
1.00855
1.00418
1.01
1.00362
1.00955
1.00417
1.01134
1.00734
1.01379
1.00946
1.01463
1.01097
1.01702
1.0118
1.01307
1.00654
1.0053
1.00381
1.01145
1.00556
1.01412
1.00756
1.01665
1.02205
1.00472
1.01361
1.0079
1.00889
1.00621
1.0117
1.00827
1.01084
1.00659
1.01079
1.00708
1.01202
1.00878
1.01478
1.01213
1.01661
1.0136
1.0186
1.01445
1.0164
1.00764
1.00886
1.00608
1.01104
1.01251
1.01152
1.00476
1.01812
1.00421
1.02198
1.00518
1.00952
1.00618
1.01042
1.00636
1.01054
1.00605
1.01047
1.00406
1.00944
1.00428
1.01084
1.00732
1.01337
1.00959
1.01419
1.0111
1.01666
1.01222
1.0129
1.00689
1.00555
1.00357
1.0115
1.00592
1.01445
1.00672
1.01711
1.02288
1.00794
1.0152
1.01029
1.01025
1.00839
1.01251
1.01047
1.01258
1.00892
1.01113
1.00682
1.01057
1.00696
1.01157
1.00879
1.01445
1.0119
1.01638
1.01273
1.01811
1.0145
1.01632
1.00755
1.00885
1.00619
1.01061
1.0125
1.01186
1.00374
1.01815
1.00539
1.02453
1.00906
1.01151
1.00851
1.01227
1.00874
1.01272
1.00883
1.01137
1.0065
1.01078
1.00439
1.00933
1.00439
1.0104
1.00736
1.01321
1.00972
1.01384
1.01166
1.01622
1.01264
1.01305
1.00689
1.00561
1.00298
1.01119
1.00602
1.0147
1.00621
1.01708
1.02232
1.01032
1.01808
1.0141
1.01261
1.01125
1.0146
1.01338
1.01404
1.01107
1.01287
1.0089
1.01118
1.00704
1.01015
1.00698
1.01146
1.00884
1.01409
1.01187
1.01623
1.01329
1.0179
1.01408
1.01639
1.00771
1.0088
1.00619
1.01002
1.01222
1.01233
1.00395
1.01779
1.006
1.02529
1.01004
1.01181
1.00987
1.01334
1.01088
1.01455
1.01129
1.01363
1.00925
1.0118
1.00695
1.01098
1.00496
1.00918
1.00472
1.00996
1.0072
1.01298
1.00982
1.01368
1.01172
1.01591
1.01279
1.0131
1.00707
1.00574
1.00302
1.01114
1.00573
1.01383
1.00644
1.01676
1.02314
1.01236
1.01913
1.01558
1.01384
1.01267
1.01588
1.01512
1.01574
1.01382
1.01448
1.01144
1.01308
1.00928
1.01069
1.00705
1.01007
1.00709
1.01122
1.00894
1.01379
1.0119
1.01577
1.01324
1.01782
1.01414
1.01625
1.00774
1.00851
1.00622
1.00963
1.01175
1.01227
1.0029
1.0174
1.00694
1.02523
1.01078
1.01289
1.01167
1.01417
1.01286
1.01558
1.01344
1.01544
1.01172
1.01398
1.00955
1.01175
1.00771
1.01095
1.00549
1.00867
1.00486
1.00971
1.00735
1.01292
1.00984
1.01369
1.0118
1.01524
1.01306
1.01323
1.00736
1.00567
1.00296
1.01113
1.00633
1.01495
1.0055
1.01639
1.02315
1.01373
1.01906
1.01582
1.01504
1.01355
1.01642
1.01561
1.01671
1.01507
1.016
1.01411
1.01434
1.01169
1.01329
1.00928
1.01111
1.0072
1.00998
1.00713
1.01068
1.00844
1.01343
1.01148
1.0156
1.01323
1.01753
1.01412
1.01627
1.008
1.00816
1.00624
1.00943
1.01094
1.01322
1.00345
1.01703
1.00673
1.02426
1.01165
1.0141
1.01289
1.01361
1.01271
1.01343
1.01321
1.01588
1.01361
1.01566
1.01203
1.01433
1.01006
1.01129
1.00818
1.01033
1.00612
1.00841
1.0051
1.00975
1.00765
1.01267
1.01034
1.01344
1.01213
1.01511
1.01331
1.01318
1.00772
1.00579
1.00296
1.01091
1.00624
1.01405
1.00603
1.01607
1.02104
1.01195
1.01764
1.01544
1.015
1.01189
1.01337
1.01189
1.01467
1.01474
1.01686
1.0152
1.01612
1.01434
1.01435
1.0119
1.01346
1.00971
1.01119
1.00684
1.00997
1.00718
1.01068
1.00848
1.01339
1.01157
1.01524
1.01311
1.0171
1.01408
1.01609
1.00819
1.00793
1.00581
1.0093
1.01122
1.01263
1.00392
1.01667
1.00478
1.02107
1.01084
1.01251
1.01081
1.01001
1.0093
1.00897
1.01072
1.01329
1.01284
1.01578
1.01377
1.01574
1.01234
1.01439
1.01062
1.01141
1.00858
1.01038
1.00653
1.00822
1.00515
1.00947
1.0078
1.0125
1.01051
1.01345
1.0122
1.01527
1.01348
1.01344
1.00784
1.00602
1.00309
1.01069
1.00641
1.01361
1.00506
1.01568
1.0182
1.00884
1.01572
1.01304
1.01166
1.00725
1.00856
1.0074
1.01045
1.01062
1.01408
1.01408
1.01667
1.01512
1.01566
1.01447
1.01445
1.01202
1.01321
1.00979
1.01111
1.00698
1.00975
1.00724
1.01045
1.00866
1.01318
1.01165
1.01508
1.01306
1.01694
1.01402
1.016
1.00832
1.00787
1.00562
1.00927
1.01115
1.0139
1.00302
1.0162
1.00314
1.01707
1.00832
1.00871
1.00715
1.00565
1.00608
1.00566
1.00741
1.00894
1.00992
1.0132
1.01301
1.01565
1.01398
1.01596
1.01274
1.01449
1.01099
1.01149
1.00876
1.01027
1.00703
1.00829
1.00523
1.00927
1.00783
1.0122
1.01055
1.01335
1.01215
1.01514
1.0135
1.01352
1.00788
1.00625
1.00294
1.01053
1.00574
1.01432
1.00568
1.0153
1.01641
1.00667
1.01326
1.0092
1.00781
1.0039
1.00642
1.00634
1.0082
1.00708
1.00983
1.01003
1.01338
1.01327
1.01665
1.0153
1.01591
1.01462
1.01447
1.01215
1.0133
1.00999
1.0111
1.00702
1.00945
1.00727
1.01029
1.00873
1.01315
1.01172
1.0149
1.01299
1.01676
1.01402
1.01598
1.00842
1.00784
1.00548
1.00919
1.01081
1.01332
1.00367
1.01603
1.00228
1.01447
1.00656
1.00561
1.00473
1.00352
1.00607
1.00612
1.00686
1.00661
1.007
1.00873
1.00961
1.01295
1.01301
1.01525
1.01422
1.0161
1.01309
1.01452
1.01128
1.01142
1.00893
1.01023
1.0072
1.00833
1.00538
1.0091
1.00784
1.01194
1.01055
1.01325
1.01214
1.01499
1.01343
1.01361
1.00795
1.00643
1.00279
1.01029
1.00608
1.01342
1.00622
1.01523
1.01548
1.00495
1.01057
1.00606
1.00616
1.00381
1.0071
1.00717
1.00765
1.00652
1.0081
1.007
1.00942
1.00966
1.01296
1.01366
1.01632
1.01533
1.01564
1.01471
1.01439
1.01189
1.01324
1.01005
1.01099
1.0072
1.00916
1.00689
1.01014
1.00855
1.01301
1.01165
1.01471
1.01298
1.01662
1.01398
1.01599
1.0085
1.00772
1.00525
1.00921
1.01096
1.01281
1.00397
1.0159
1.00283
1.01287
1.00506
1.00408
1.00497
1.00446
1.00818
1.00778
1.00807
1.00752
1.00712
1.0069
1.00674
1.00857
1.00941
1.01264
1.01271
1.01551
1.0145
1.01608
1.01338
1.01457
1.01174
1.01143
1.00908
1.01008
1.00722
1.00842
1.00577
1.00898
1.00803
1.01177
1.01072
1.01313
1.01211
1.01491
1.01333
1.01368
1.00805
1.0065
1.00261
1.01026
1.00612
1.01318
1.00524
1.01504
1.01581
1.00538
1.01042
1.00639
1.00775
1.00597
1.00869
1.00851
1.00923
1.00792
1.00803
1.00656
1.00807
1.00694
1.00927
1.00955
1.0121
1.01358
1.01607
1.01534
1.01574
1.0148
1.01447
1.01215
1.01311
1.01023
1.01097
1.00741
1.00916
1.00655
1.00995
1.00847
1.01276
1.01163
1.01442
1.01293
1.01647
1.01391
1.01602
1.00857
1.00779
1.00515
1.0091
1.01078
1.01385
1.00304
1.01561
1.00441
1.01364
1.00626
1.0053
1.00734
1.00667
1.01046
1.00922
1.01021
1.00942
1.00879
1.00797
1.00735
1.00692
1.00677
1.00821
1.00921
1.01286
1.01277
1.01543
1.01463
1.01607
1.01354
1.01451
1.01193
1.01142
1.00919
1.00968
1.00731
1.00825
1.00598
1.00896
1.00804
1.01171
1.01072
1.01317
1.01207
1.01472
1.01339
1.0137
1.00814
1.00664
1.00248
1.01022
1.00556
1.01382
1.00545
1.0147
1.01665
1.00711
1.01238
1.00887
1.01038
1.00824
1.01021
1.00958
1.01124
1.00951
1.00964
1.00788
1.00823
1.00638
1.00786
1.00695
1.00926
1.00953
1.01231
1.01332
1.01589
1.01523
1.0157
1.01493
1.01429
1.01237
1.01305
1.01029
1.01105
1.0076
1.00914
1.00667
1.00981
1.00849
1.01268
1.01165
1.0143
1.01287
1.01635
1.01385
1.01602
1.00867
1.00758
1.00491
1.00881
1.01033
1.0135
1.00322
1.01528
1.0056
1.01525
1.00825
1.00774
1.01011
1.00857
1.01228
1.01018
1.01217
1.01089
1.01077
1.00998
1.00915
1.00815
1.00769
1.00695
1.00681
1.00802
1.0088
1.01261
1.01288
1.01549
1.0148
1.01608
1.01362
1.01449
1.01204
1.01145
1.00932
1.00958
1.0074
1.00792
1.00616
1.00883
1.00797
1.01158
1.01065
1.01308
1.01208
1.01461
1.01337
1.01378
1.00822
1.00674
1.00274
1.01004
1.00572
1.01331
1.00559
1.01437
1.01713
1.00876
1.01454
1.01074
1.01196
1.00963
1.01144
1.01038
1.01225
1.01005
1.01145
1.00954
1.00998
1.00813
1.00844
1.00659
1.00797
1.00696
1.00889
1.00961
1.01208
1.01325
1.01575
1.01535
1.01564
1.01505
1.01439
1.01247
1.013
1.01042
1.01102
1.00772
1.009
1.00675
1.00967
1.00849
1.01253
1.01164
1.01413
1.01274
1.01621
1.01384
1.01598
1.00886
1.00738
1.00494
1.00865
1.01033
1.01351
1.00246
1.01501
1.00693
1.01628
1.00956
1.01018
1.01161
1.00909
1.0129
1.00982
1.01182
1.01063
1.01198
1.01123
1.01103
1.01006
1.00938
1.00837
1.00749
1.00712
1.00674
1.00815
1.00866
1.01233
1.01285
1.01532
1.01474
1.01607
1.01383
1.01439
1.01218
1.0113
1.00943
1.00954
1.00753
1.00774
1.00617
1.00862
1.00796
1.0114
1.01065
1.01295
1.01208
1.01443
1.01338
1.01384
1.00849
1.00671
1.00276
1.00999
1.00563
1.01397
1.00497
1.01411
1.01742
1.0107
1.01594
1.01189
1.0131
1.01072
1.01226
1.01019
1.01148
1.00958
1.01206
1.01015
1.01148
1.00968
1.01
1.00825
1.00849
1.00701
1.00773
1.00672
1.00892
1.00963
1.0118
1.01311
1.01575
1.01537
1.01561
1.01507
1.01442
1.01256
1.01297
1.01051
1.01105
1.00782
1.00893
1.00679
1.00947
1.0084
1.01244
1.0116
1.01402
1.01271
1.01589
1.01383
1.01579
1.00911
1.00724
1.00486
1.00841
1.00977
1.01392
1.00299
1.01478
1.00752
1.0171
1.01217
1.01158
1.01168
1.00903
1.01285
1.00876
1.01049
1.00952
1.01125
1.01076
1.01185
1.01141
1.01129
1.0103
1.00958
1.0087
1.0076
1.00742
1.00693
1.00805
1.00855
1.01211
1.01283
1.01506
1.01489
1.01583
1.01405
1.01425
1.01232
1.01121
1.00949
1.00948
1.00761
1.00769
1.00619
1.00858
1.00796
1.01127
1.0106
1.0128
1.01213
1.01442
1.01337
1.01368
1.00894
1.00676
1.00275
1.00989
1.00543
1.01333
1.00529
1.01382
1.01737
1.01062
1.01581
1.01252
1.01338
1.01063
1.01163
1.00874
1.00987
1.00839
1.01098
1.00935
1.01147
1.01001
1.0116
1.00992
1.01024
1.00841
1.00813
1.00707
1.00775
1.00674
1.00834
1.0096
1.01163
1.0129
1.01578
1.01545
1.01584
1.01508
1.01441
1.01268
1.0129
1.01053
1.01102
1.0078
1.00859
1.00682
1.00937
1.00835
1.01227
1.01162
1.01381
1.01262
1.01576
1.01396
1.01547
1.00924
1.00717
1.00474
1.00822
1.01007
1.0135
1.003
1.0145
1.00805
1.01737
1.01243
1.01161
1.0116
1.00866
1.01207
1.00743
1.00933
1.00833
1.00964
1.00919
1.01097
1.01087
1.012
1.01152
1.01134
1.01045
1.00977
1.00876
1.00767
1.00737
1.00712
1.00826
1.00846
1.012
1.01286
1.01496
1.01496
1.0158
1.01418
1.01415
1.01241
1.01122
1.00953
1.00944
1.00771
1.00778
1.00615
1.00837
1.00793
1.01112
1.01061
1.01272
1.01214
1.01427
1.01351
1.01379
1.00907
1.00678
1.00266
1.00978
1.00556
1.01314
1.0052
1.01358
1.0168
1.01109
1.01687
1.01272
1.0132
1.00989
1.01033
1.00734
1.00902
1.00719
1.00908
1.00778
1.0106
1.00935
1.01146
1.00997
1.01131
1.01017
1.01031
1.0087
1.00848
1.0073
1.00773
1.00676
1.00807
1.00957
1.01153
1.01284
1.01565
1.01541
1.01576
1.01496
1.01437
1.01273
1.01281
1.01056
1.01098
1.00786
1.00835
1.00679
1.00932
1.00829
1.01208
1.01162
1.01376
1.01256
1.01556
1.01392
1.01539
1.00936
1.00707
1.00465
1.00808
1.00952
1.01338
1.00319
1.01428
1.00758
1.01712
1.0123
1.01127
1.01138
1.00765
1.01074
1.00658
1.00911
1.00781
1.00854
1.00839
1.00946
1.00929
1.01079
1.01085
1.01196
1.01153
1.01104
1.01034
1.00974
1.00868
1.00784
1.00744
1.00718
1.00839
1.0085
1.01182
1.01288
1.01491
1.01491
1.01581
1.01441
1.01418
1.01244
1.01121
1.00959
1.00939
1.00775
1.00788
1.0062
1.00822
1.00787
1.01099
1.01061
1.01258
1.01215
1.01416
1.01356
1.01376
1.00914
1.00668
1.00259
1.00954
1.00591
1.01275
1.00531
1.01338
1.01546
1.01043
1.01628
1.01154
1.01221
1.00862
1.00913
1.00709
1.00937
1.00689
1.00847
1.00706
1.009
1.00771
1.01014
1.00941
1.01133
1.01028
1.01136
1.01067
1.01049
1.00904
1.00852
1.00728
1.00758
1.00694
1.00792
1.00946
1.01147
1.01274
1.01542
1.01553
1.01575
1.01508
1.01437
1.01277
1.01276
1.01057
1.01082
1.00785
1.00828
1.00672
1.00926
1.00829
1.01192
1.01159
1.01362
1.0125
1.01544
1.01367
1.01532
1.00953
1.00706
1.00457
1.00802
1.00942
1.01318
1.00299
1.01411
1.0071
1.0159
1.01201
1.01034
1.01038
1.00624
1.00972
1.00683
1.00968
1.00784
1.00844
1.00787
1.00835
1.00783
1.00939
1.00932
1.01067
1.0109
1.01191
1.0116
1.01112
1.01042
1.0098
1.00881
1.00793
1.00754
1.00722
1.00842
1.00846
1.01177
1.01281
1.01491
1.01494
1.01574
1.01442
1.01416
1.01248
1.01122
1.00965
1.00951
1.00777
1.00785
1.00616
1.00809
1.0078
1.01077
1.01061
1.01247
1.01211
1.01403
1.01372
1.01366
1.00921
1.0066
1.00264
1.0093
1.00585
1.01289
1.005
1.01321
1.01468
1.01037
1.0162
1.01071
1.01154
1.00778
1.0088
1.0079
1.01026
1.00732
1.0091
1.00698
1.00834
1.00682
1.00887
1.00767
1.00983
1.00943
1.01088
1.01035
1.01143
1.01079
1.01057
1.00925
1.00859
1.00753
1.00764
1.00697
1.00788
1.00938
1.01152
1.0127
1.01531
1.01551
1.01574
1.01516
1.01434
1.01278
1.01268
1.01058
1.01073
1.00784
1.0082
1.0067
1.00904
1.00826
1.01181
1.01156
1.0135
1.01245
1.01528
1.01369
1.01529
1.00969
1.00712
1.00437
1.00787
1.00916
1.01343
1.00287
1.0139
1.00695
1.01503
1.01153
1.00896
1.00968
1.0055
1.00962
1.00772
1.01029
1.00845
1.00922
1.00812
1.00841
1.00785
1.00853
1.00795
1.00928
1.0094
1.0107
1.01106
1.01194
1.01166
1.01117
1.01044
1.00974
1.00884
1.00798
1.00751
1.00722
1.00831
1.00841
1.01139
1.01272
1.01487
1.01496
1.01573
1.01447
1.01417
1.01258
1.01121
1.00959
1.00946
1.00777
1.00777
1.00616
1.00809
1.00775
1.01064
1.01059
1.01235
1.01206
1.01392
1.01371
1.01362
1.00925
1.00649
1.00256
1.00897
1.00566
1.01282
1.00488
1.01306
1.01314
1.00948
1.01479
1.00912
1.01085
1.0074
1.00911
1.00885
1.01086
1.00824
1.01004
1.00772
1.00907
1.00709
1.00802
1.00697
1.00836
1.00774
1.00977
1.00931
1.01083
1.01041
1.01145
1.0109
1.01065
1.00947
1.0087
1.00764
1.00771
1.00703
1.0079
1.00939
1.01143
1.01265
1.01516
1.01549
1.01571
1.01518
1.01428
1.01278
1.01264
1.01059
1.01072
1.00785
1.00812
1.0067
1.00888
1.00821
1.01165
1.01148
1.01338
1.0124
1.01512
1.01363
1.01515
1.00979
1.00714
1.00434
1.00771
1.00898
1.01326
1.00311
1.01365
1.00689
1.01389
1.01121
1.0076
1.00899
1.00515
1.01
1.00851
1.01082
1.00952
1.01042
1.00914
1.00929
1.00825
1.00834
1.00799
1.00841
1.00812
1.00918
1.00928
1.01072
1.011
1.01189
1.01153
1.01132
1.01046
1.00974
1.00888
1.00806
1.00753
1.00729
1.00824
1.00834
1.0113
1.01265
1.01482
1.01496
1.01571
1.01446
1.01405
1.01261
1.01119
1.00965
1.00945
1.00775
1.00774
1.00616
1.00799
1.00769
1.01046
1.01055
1.0122
1.01202
1.01381
1.01368
1.01357
1.00929
1.00636
1.00258
1.00872
1.0056
1.01246
1.00459
1.01288
1.01272
1.00936
1.01425
1.00841
1.01046
1.00752
1.00985
1.00969
1.01144
1.00952
1.01138
1.00884
1.00992
1.00781
1.00889
1.00737
1.00809
1.0071
1.00858
1.00763
1.00978
1.00944
1.01083
1.01045
1.01145
1.01095
1.01072
1.00967
1.00875
1.00775
1.00773
1.00705
1.00807
1.00937
1.01138
1.01254
1.01508
1.01549
1.01567
1.01526
1.01438
1.0128
1.0126
1.01062
1.01059
1.00787
1.00803
1.0067
1.00878
1.00816
1.01152
1.01148
1.01329
1.01236
1.01495
1.0136
1.01508
1.00986
1.00719
1.0042
1.00757
1.00895
1.01346
1.00269
1.01344
1.00699
1.01309
1.01068
1.00653
1.00876
1.00553
1.01084
1.0092
1.01135
1.01051
1.01108
1.00999
1.0102
1.00919
1.00935
1.0082
1.00838
1.00778
1.00834
1.00822
1.00924
1.00923
1.01046
1.01094
1.01186
1.01149
1.0114
1.01039
1.00977
1.00889
1.00815
1.00756
1.00733
1.00798
1.00829
1.01121
1.01262
1.01472
1.01491
1.01566
1.01448
1.01405
1.01262
1.01119
1.00966
1.00954
1.00774
1.00772
1.00607
1.00786
1.00765
1.0103
1.01052
1.01207
1.01198
1.01364
1.01361
1.01349
1.00934
1.00627
1.00267
1.00846
1.00535
1.01264
1.00455
1.01276
1.01236
1.00902
1.0136
1.00783
1.0104
1.00815
1.01077
1.01015
1.01185
1.01048
1.01204
1.00986
1.0112
1.00923
1.01008
1.00821
1.00906
1.00755
1.00807
1.00726
1.00818
1.00769
1.00946
1.00957
1.01084
1.0106
1.01146
1.01106
1.01062
1.00973
1.0088
1.00779
1.0077
1.00713
1.00804
1.0092
1.01128
1.01246
1.01499
1.01553
1.01565
1.01528
1.01435
1.01283
1.01254
1.01058
1.01054
1.00786
1.00795
1.00677
1.00868
1.00816
1.01139
1.01143
1.01313
1.01234
1.01477
1.01358
1.01499
1.00997
1.00714
1.00419
1.00743
1.00873
1.0132
1.00272
1.01329
1.00742
1.01257
1.01053
1.00634
1.00916
1.00643
1.01159
1.00937
1.01152
1.01088
1.01128
1.01088
1.01109
1.01013
1.01033
1.0093
1.00939
1.00797
1.00839
1.00788
1.00819
1.0083
1.00914
1.00941
1.01045
1.01089
1.01184
1.01154
1.01145
1.01052
1.00994
1.00896
1.0082
1.00762
1.00731
1.00792
1.00835
1.01111
1.01257
1.01468
1.01489
1.01564
1.01451
1.01404
1.01264
1.01123
1.00966
1.00952
1.00765
1.0077
1.00606
1.00762
1.00757
1.01015
1.0105
1.01193
1.01195
1.01348
1.0135
1.01341
1.00943
1.00607
1.00273
1.00819
1.00536
1.01224
1.00453
1.01269
1.01198
1.00892
1.01301
1.00769
1.01077
1.00906
1.01143
1.01024
1.01228
1.01109
1.0122
1.01045
1.01202
1.01
1.01143
1.00939
1.01001
1.00793
1.00916
1.00767
1.00801
1.00733
1.00823
1.00778
1.00935
1.00952
1.01075
1.01056
1.01143
1.01113
1.0107
1.00973
1.00886
1.00785
1.00762
1.00717
1.00795
1.00912
1.01122
1.0124
1.0149
1.01555
1.01561
1.01528
1.01433
1.01281
1.01252
1.01056
1.01048
1.0079
1.00788
1.00675
1.0086
1.00809
1.01123
1.01139
1.01298
1.01226
1.01447
1.01352
1.01484
1.01005
1.00702
1.00423
1.00717
1.0087
1.01286
1.00281
1.01311
1.00767
1.01226
1.01042
1.0063
1.00964
1.00718
1.01189
1.00921
1.01164
1.01096
1.01121
1.01145
1.01137
1.01114
1.01125
1.01031
1.01005
1.0095
1.0097
1.00804
1.00844
1.0079
1.00819
1.00821
1.00911
1.00943
1.0103
1.01092
1.01191
1.01158
1.01148
1.01058
1.01006
1.00902
1.00819
1.00774
1.00733
1.00796
1.00835
1.01097
1.01255
1.01459
1.01486
1.01563
1.01454
1.01402
1.01264
1.01125
1.00966
1.00956
1.00767
1.00764
1.00603
1.00755
1.00752
1.00993
1.01046
1.0118
1.01192
1.01344
1.0134
1.0134
1.00949
1.00592
1.00279
1.0079
1.00536
1.01187
1.00464
1.01252
1.01256
1.00927
1.0135
1.00818
1.01142
1.00989
1.01176
1.01017
1.0125
1.01091
1.01207
1.01094
1.01215
1.0103
1.01146
1.01
1.01121
1.00982
1.01008
1.00825
1.0091
1.00785
1.00802
1.00739
1.0082
1.00782
1.00927
1.00963
1.01073
1.01056
1.0114
1.01107
1.01077
1.00978
1.00891
1.00799
1.00763
1.00713
1.00794
1.00907
1.01112
1.01235
1.01479
1.01555
1.01557
1.01526
1.01432
1.01281
1.01247
1.01052
1.01044
1.00791
1.00784
1.00672
1.00846
1.0081
1.01111
1.01131
1.01287
1.01218
1.01428
1.01349
1.01475
1.01011
1.00691
1.00418
1.0069
1.0086
1.01275
1.00249
1.01283
1.00847
1.01296
1.01106
1.00661
1.01019
1.00778
1.01188
1.00896
1.01147
1.01033
1.01061
1.01122
1.01124
1.01161
1.01165
1.01152
1.01153
1.0103
1.01021
1.00916
1.00963
1.00813
1.00841
1.00785
1.00815
1.00813
1.00908
1.00918
1.01024
1.01088
1.01189
1.01163
1.01163
1.01062
1.01013
1.00908
1.00821
1.00778
1.0074
1.00792
1.0083
1.01091
1.01248
1.01456
1.01485
1.01563
1.01457
1.01403
1.01264
1.0113
1.00968
1.00954
1.00766
1.00762
1.00603
1.00736
1.00746
1.00979
1.01039
1.01168
1.01187
1.01326
1.01329
1.01336
1.00964
1.00587
1.00283
1.00765
1.00525
1.01225
1.00425
1.01232
1.0127
1.00978
1.01357
1.00842
1.01189
1.01039
1.01171
1.00993
1.01233
1.01031
1.01188
1.0107
1.01198
1.01047
1.01162
1.01039
1.01158
1.01021
1.01078
1.01001
1.01001
1.00845
1.0091
1.00798
1.00809
1.0075
1.00818
1.00781
1.0094
1.00964
1.01074
1.01059
1.01139
1.01111
1.01082
1.00985
1.00892
1.00805
1.00767
1.00716
1.00793
1.00905
1.01108
1.01228
1.01472
1.01551
1.01553
1.01525
1.01428
1.01279
1.01246
1.01049
1.01042
1.00792
1.00779
1.00673
1.00836
1.008
1.01097
1.01122
1.01275
1.01209
1.01415
1.01341
1.01468
1.01011
1.00691
1.00408
1.00667
1.00818
1.01301
1.00268
1.01252
1.0094
1.01256
1.01116
1.0073
1.01076
1.00823
1.01163
1.00872
1.01114
1.00968
1.01028
1.01071
1.01048
1.0112
1.01158
1.01163
1.01185
1.01129
1.0116
1.01065
1.01027
1.00926
1.00972
1.00817
1.00835
1.00776
1.00817
1.00814
1.009
1.00917
1.01024
1.01083
1.01178
1.01165
1.01163
1.01062
1.01017
1.00911
1.00826
1.00772
1.0074
1.00788
1.00825
1.01085
1.01239
1.01451
1.01482
1.01563
1.01455
1.01403
1.01265
1.01134
1.00966
1.0095
1.00763
1.00752
1.00588
1.00731
1.00739
1.00967
1.01033
1.01156
1.01179
1.0131
1.01318
1.01334
1.00969
1.00579
1.00285
1.0074
1.00503
1.01185
1.00439
1.01218
1.01277
1.01035
1.01364
1.00918
1.01231
1.01066
1.01146
1.00954
1.01171
1.00936
1.01125
1.0099
1.01138
1.01052
1.01146
1.01067
1.01141
1.01053
1.01141
1.01044
1.01084
1.01007
1.00991
1.0085
1.00881
1.00807
1.0081
1.00746
1.0081
1.00786
1.00934
1.00968
1.01072
1.01071
1.01131
1.01118
1.01085
1.00993
1.00899
1.00811
1.00777
1.00719
1.00791
1.00899
1.01104
1.01226
1.01464
1.01549
1.01551
1.01525
1.0143
1.01278
1.01239
1.01046
1.01041
1.00794
1.00773
1.00679
1.00826
1.00792
1.0108
1.01112
1.01263
1.01204
1.01399
1.01334
1.01459
1.01014
1.00683
1.00393
1.00649
1.00781
1.01263
1.00275
1.0119
1.00976
1.01276
1.01217
1.00811
1.01117
1.00845
1.01119
1.00848
1.01064
1.00904
1.00981
1.00988
1.01002
1.0107
1.01068
1.01116
1.01156
1.01174
1.01187
1.01132
1.01158
1.01074
1.01032
1.00944
1.00976
1.00844
1.00843
1.00777
1.00821
1.00809
1.00893
1.00916
1.01018
1.01079
1.01176
1.01171
1.0116
1.01066
1.01025
1.00918
1.00831
1.00773
1.0074
1.00787
1.00822
1.01075
1.01231
1.01446
1.01478
1.01559
1.01455
1.01404
1.01267
1.01144
1.00968
1.0095
1.00762
1.00752
1.00586
1.0072
1.0072
1.00957
1.01025
1.01141
1.0117
1.01297
1.01309
1.0133
1.00974
1.00578
1.00277
1.00702
1.00548
1.01158
1.00384
1.01126
1.01314
1.01086
1.01394
1.00976
1.01245
1.01071
1.01105
1.00905
1.01095
1.0086
1.01066
1.00893
1.01082
1.00968
1.01064
1.01053
1.01129
1.01093
1.01149
1.01068
1.01108
1.01035
1.01083
1.01019
1.00995
1.00864
1.00873
1.00809
1.00807
1.00751
1.00809
1.00792
1.00918
1.00967
1.01071
1.01072
1.01133
1.01127
1.0109
1.01
1.00901
1.00815
1.00781
1.00724
1.00788
1.00897
1.01097
1.0122
1.01458
1.01546
1.01554
1.01523
1.01426
1.01276
1.01236
1.01041
1.0104
1.00793
1.0077
1.00674
1.00816
1.00794
1.01064
1.01105
1.0125
1.01189
1.01385
1.01326
1.0145
1.01015
1.00663
1.00385
1.00645
1.00773
1.01277
1.00323
1.01168
1.00987
1.01292
1.01272
1.0084
1.01108
1.00843
1.01061
1.00818
1.00985
1.00814
1.00889
1.00893
1.00946
1.00969
1.01008
1.01065
1.01087
1.01115
1.01106
1.01161
1.01189
1.01153
1.01161
1.01074
1.01035
1.00951
1.0097
1.00853
1.00844
1.00781
1.00821
1.00804
1.00886
1.00919
1.01015
1.01075
1.01174
1.01169
1.01162
1.01067
1.01027
1.00923
1.00835
1.00778
1.00738
1.00787
1.00818
1.01068
1.01227
1.0144
1.01473
1.01555
1.01454
1.01407
1.01267
1.01147
1.00971
1.0095
1.00763
1.00748
1.00581
1.00712
1.00714
1.00946
1.0102
1.01132
1.01165
1.01284
1.01297
1.01326
1.0098
1.00593
1.00272
1.00672
1.00515
1.01142
1.00467
1.01119
1.01272
1.01117
1.01406
1.01033
1.01239
1.0106
1.01048
1.00849
1.01019
1.00791
1.00987
1.00798
1.01011
1.0084
1.00983
1.00984
1.01057
1.01018
1.01087
1.01124
1.01149
1.01081
1.01123
1.01048
1.01096
1.0102
1.00996
1.00877
1.00871
1.00804
1.00807
1.00756
1.00811
1.00799
1.00914
1.00965
1.01068
1.01075
1.01135
1.01132
1.01096
1.01008
1.00907
1.00821
1.00784
1.0073
1.00786
1.00894
1.01086
1.01215
1.01451
1.01544
1.0155
1.01523
1.01425
1.01276
1.01237
1.01038
1.01038
1.00794
1.00764
1.00672
1.00806
1.00784
1.01049
1.01092
1.01238
1.01179
1.01372
1.01316
1.01441
1.01014
1.00666
1.00376
1.00633
1.00756
1.01247
1.00326
1.01156
1.01028
1.01299
1.01321
1.00869
1.01091
1.00831
1.00999
1.00791
1.00913
1.00768
1.00863
1.00839
1.00859
1.00869
1.00983
1.00985
1.01018
1.01072
1.01057
1.01123
1.01114
1.01152
1.01186
1.01136
1.01158
1.01073
1.0103
1.00943
1.0097
1.00854
1.00856
1.00775
1.00813
1.00802
1.0088
1.00916
1.01014
1.01071
1.01168
1.01168
1.01162
1.0107
1.01027
1.00927
1.00839
1.00779
1.00737
1.00785
1.00818
1.01066
1.01221
1.01436
1.0147
1.01556
1.01454
1.01404
1.01265
1.0115
1.00971
1.00949
1.00763
1.00746
1.00577
1.00704
1.00707
1.00934
1.01014
1.01121
1.01153
1.01273
1.01286
1.01323
1.00981
1.00595
1.00264
1.00651
1.0051
1.01129
1.0046
1.01114
1.01264
1.01135
1.01409
1.01068
1.01212
1.01046
1.00988
1.00794
1.00941
1.00718
1.00907
1.00717
1.00914
1.00778
1.00897
1.00857
1.00955
1.00978
1.01052
1.01077
1.01105
1.01128
1.0114
1.01085
1.01133
1.01052
1.01095
1.01018
1.01006
1.00882
1.00876
1.00803
1.00815
1.00762
1.0081
1.00796
1.00912
1.00962
1.01071
1.01079
1.01138
1.01135
1.01099
1.01012
1.0091
1.00822
1.00787
1.00732
1.00784
1.00892
1.0108
1.01209
1.01444
1.01541
1.01551
1.01521
1.01429
1.01277
1.01237
1.01037
1.01034
1.00793
1.0076
1.00662
1.00798
1.00774
1.01032
1.01082
1.01224
1.01169
1.0136
1.01304
1.01435
1.01011
1.00654
1.00366
1.00612
1.00753
1.01226
1.0033
1.01147
1.0104
1.01309
1.01351
1.00878
1.01067
1.0082
1.00937
1.00765
1.00852
1.00738
1.00819
1.00792
1.00825
1.00836
1.0089
1.00905
1.00974
1.01004
1.01011
1.01048
1.01064
1.01107
1.0112
1.0115
1.01182
1.01134
1.01124
1.01066
1.01048
1.00945
1.00968
1.00855
1.00854
1.00777
1.00809
1.00798
1.00879
1.00912
1.01011
1.01061
1.01164
1.01167
1.01164
1.01073
1.01033
1.00929
1.00846
1.00784
1.0074
1.00785
1.00813
1.01059
1.01215
1.01432
1.01467
1.01554
1.01455
1.01405
1.01268
1.0115
1.00972
1.00946
1.00763
1.00743
1.00575
1.00695
1.007
1.00922
1.01003
1.01113
1.01141
1.01263
1.01276
1.01318
1.00984
1.00602
1.00259
1.0063
1.00506
1.01102
1.00451
1.0109
1.01275
1.01167
1.01452
1.01107
1.01182
1.01024
1.00922
1.00739
1.00887
1.00701
1.00894
1.00712
1.00808
1.00712
1.0082
1.00789
1.00885
1.00856
1.00946
1.00979
1.01043
1.0108
1.01107
1.01132
1.01148
1.01092
1.01137
1.01082
1.01102
1.01014
1.01008
1.00881
1.00878
1.00804
1.00814
1.00762
1.00809
1.00798
1.00904
1.0096
1.0107
1.01081
1.01137
1.01141
1.01101
1.01019
1.00917
1.00826
1.00788
1.00733
1.00782
1.00886
1.01076
1.01203
1.01438
1.01537
1.01549
1.01519
1.01429
1.01276
1.01236
1.0104
1.01033
1.00791
1.00755
1.00656
1.00785
1.00765
1.01011
1.01074
1.01212
1.01159
1.01347
1.01291
1.01429
1.01008
1.00655
1.00356
1.00594
1.00749
1.01207
1.00315
1.01066
1.01046
1.01326
1.0139
1.00874
1.0105
1.00804
1.00879
1.0075
1.00825
1.00756
1.00836
1.00782
1.00806
1.00809
1.00828
1.00852
1.00881
1.00899
1.0093
1.00991
1.00985
1.0105
1.01054
1.011
1.01124
1.01146
1.01154
1.01125
1.01132
1.01072
1.01054
1.00945
1.00971
1.00857
1.00853
1.00774
1.0081
1.00798
1.00874
1.00913
1.01009
1.01059
1.01164
1.01169
1.01166
1.01078
1.01034
1.00932
1.0085
1.00788
1.00741
1.00782
1.00813
1.01052
1.01211
1.01425
1.01465
1.01552
1.01456
1.01407
1.0127
1.01152
1.00972
1.00943
1.00765
1.00738
1.00566
1.00688
1.00694
1.00907
1.00993
1.01103
1.01129
1.01255
1.01265
1.01313
1.00986
1.006
1.00247
1.00613
1.00497
1.01093
1.00488
1.01044
1.01285
1.01172
1.01467
1.0111
1.01137
1.00996
1.00861
1.00705
1.00873
1.00716
1.00896
1.00702
1.00836
1.00714
1.0077
1.00726
1.00783
1.00794
1.00889
1.00904
1.00942
1.01013
1.01019
1.01084
1.01099
1.01134
1.01148
1.01126
1.01147
1.01085
1.01101
1.01019
1.01011
1.00887
1.00878
1.00808
1.00817
1.00761
1.00806
1.00798
1.00902
1.00959
1.0107
1.0108
1.01136
1.01141
1.01102
1.01023
1.00924
1.0083
1.00788
1.00737
1.0078
1.00879
1.01072
1.01198
1.01432
1.01534
1.01547
1.01517
1.01429
1.01277
1.01231
1.0104
1.0103
1.00792
1.0075
1.00653
1.00777
1.00761
1.00999
1.01063
1.012
1.01147
1.01335
1.01277
1.01422
1.01009
1.00652
1.00347
1.00576
1.0073
1.01188
1.0035
1.01068
1.01062
1.01325
1.01398
1.00874
1.01021
1.00782
1.0083
1.0075
1.0082
1.00776
1.00834
1.00785
1.0082
1.00793
1.00795
1.00821
1.00826
1.00871
1.00875
1.00865
1.00924
1.00985
1.00977
1.0106
1.01052
1.01101
1.0112