/*--------------------------------*- C++ -*----------------------------------*\
| =========                 |                                                 |
| \\      /  F ield         | OpenFOAM: The Open Source CFD Toolbox           |
|  \\    /   O peration     | Version:  2206                                  |
|   \\  /    A nd           | Website:  www.openfoam.com                      |
|    \\/     M anipulation  |                                                 |
\*---------------------------------------------------------------------------*/
FoamFile
{
    version     2.0;
    format      ascii;
    arch        "LSB;label=32;scalar=64";
    class       volScalarField;
    location    "180";
    object      TPrime2Mean;
}
// * * * * * * * * * * * * * * * * * * * * * * * * * * * * * * * * * * * * * //

dimensions      [0 0 0 2 0 0 0];

internalField   nonuniform List<scalar> 
93840
(
0.000611952
0.00110219
0.00174414
0.000236742
0.00310593
0.00317086
0.000139368
0.000382448
0.000695881
0.00174789
0.000352614
0.00151943
0.000251934
0.000687427
0.000625448
9.1157e-05
0.000440127
0.00345563
0.000598336
0.00044169
0.000791044
5.03376e-05
0.000284176
0.000124988
0.000236164
0.00128994
0.000149338
0.00163108
1.09567e-05
0.000447152
0.000550205
0.000438045
0.00135102
0.000994847
0.00021774
0.0029304
2.34221e-05
0.000286871
0.000203423
0.000274042
8.0324e-05
0.000240123
0.000685767
0.000280972
0.00300836
1.90027e-05
0.000218245
0.000314622
0.000452851
0.00118041
0.000386504
0.00116594
0.000674762
0.000353061
0.00423433
1.29671e-05
0.0001757
0.000205314
0.000261149
0.000139083
0.000479979
0.000103309
0.000199933
0.000540033
0.00034137
0.00304818
1.75841e-05
9.37755e-05
0.000289628
0.000133295
0.00072636
0.000301855
0.000909508
0.000248559
0.000762527
0.000837014
0.000297889
0.00292402
1.24163e-05
0.00011902
0.000180278
0.000222314
0.000135715
0.000394143
0.000203664
0.000111155
0.000203775
0.000171888
0.000709735
0.000323406
0.00319716
2.62848e-05
8.80099e-05
0.000309093
0.000105949
0.000447474
0.000234638
0.000801396
0.000164128
0.000411937
0.000251657
0.000620977
0.000688869
0.000257173
0.00291303
1.17963e-05
0.000107842
0.000161978
0.000207777
0.000116609
0.000463097
6.3233e-05
0.000183634
0.000192771
8.99482e-05
0.000275299
0.000201875
0.000656069
0.000317363
0.00316915
2.15967e-05
7.65617e-05
0.000262507
0.000128693
0.000340301
0.000164987
0.000410059
0.000163755
0.000412126
0.000135802
0.000370574
0.00023999
0.000568166
0.000706615
0.000246737
0.00289631
1.16689e-05
8.63454e-05
0.000187085
0.000188701
9.92149e-05
0.000446109
6.50143e-05
0.000299749
9.90928e-05
0.000105183
0.000198614
0.0001015
0.00028855
0.000196603
0.000601094
0.000314557
0.00323653
2.8189e-05
6.41421e-05
0.000260393
0.000127473
0.00021181
0.000163454
0.000275487
0.000117943
0.000235473
0.00015471
0.00037111
0.000116602
0.000311628
0.000211824
0.000541598
0.000691055
0.000242612
0.0029314
1.26574e-05
7.91292e-05
0.000193187
0.000215468
8.90119e-05
0.000367464
3.27165e-05
0.000283809
7.5006e-05
0.000231749
0.000119265
9.5108e-05
0.000211134
0.000127132
0.00028902
0.000192133
0.000574013
0.000311053
0.00326984
2.97016e-05
5.87984e-05
0.000274926
0.000133919
0.000182547
0.000119987
0.00019799
9.44297e-05
0.000169965
0.000114721
0.000198639
0.000139
0.000309571
0.000107291
0.000291922
0.000216408
0.000498698
0.000682761
0.000243052
0.00293116
2.021e-05
7.49161e-05
0.000209839
0.000216642
6.43216e-05
0.00036242
2.53332e-05
0.000220529
5.08308e-05
0.000243126
7.97764e-05
0.000180744
0.000138364
9.76782e-05
0.00021172
0.000130931
0.000273615
0.000181451
0.000545495
0.000309217
0.00330038
3.26285e-05
5.29779e-05
0.000268372
0.000123503
0.00016316
0.000114349
0.000126364
6.68654e-05
0.000113157
9.30096e-05
0.000129912
0.000115737
0.000171729
0.000126385
0.000286249
0.000105797
0.000256403
0.000215763
0.000441646
0.000680974
0.000245232
0.00288884
2.64685e-05
8.97675e-05
0.000200556
0.000224497
5.10477e-05
0.000319345
2.5873e-05
0.000195666
3.65394e-05
0.000206836
5.5495e-05
0.000184746
8.29747e-05
0.000163669
0.00014343
8.95396e-05
0.000198095
0.000126941
0.000249584
0.000164394
0.000528176
0.000305226
0.00341033
3.54158e-05
5.46349e-05
0.000247186
0.000133016
0.000154492
9.73848e-05
0.000125023
3.47005e-05
6.64902e-05
6.83542e-05
8.42892e-05
8.0368e-05
9.24152e-05
0.000102833
0.000161776
0.00011023
0.000245294
0.000111348
0.000221731
0.000226631
0.000401368
0.000675125
0.000250663
0.00284994
3.2833e-05
9.09887e-05
0.000191649
0.000247915
4.86456e-05
0.000316573
2.09555e-05
0.000172714
3.00482e-05
0.000183753
3.691e-05
0.000128551
5.58279e-05
0.0001653
8.7814e-05
0.000124871
0.000146755
0.000103949
0.000183901
0.000119748
0.000236639
0.000160302
0.000516313
0.000320874
0.003582
3.53931e-05
5.70346e-05
0.000265121
0.000160993
0.000125382
0.000100702
0.000116754
3.97866e-05
5.97294e-05
3.12647e-05
4.5051e-05
5.83787e-05
5.37946e-05
8.32023e-05
8.3464e-05
9.23554e-05
0.000136568
0.000107128
0.000197878
0.000118296
0.000191423
0.00023673
0.000372033
0.000671361
0.000305963
0.0038183
3.32797e-05
9.76767e-05
0.000180199
0.000225338
4.6806e-05
0.000310402
1.53053e-05
0.000135541
1.92788e-05
0.000156548
3.57395e-05
0.000115091
4.39447e-05
0.000116039
5.68966e-05
0.000123556
9.1629e-05
0.00012433
0.000125589
0.000118236
0.000175657
0.000107429
0.000226721
0.000153428
0.000527316
0.000247221
0.00335647
3.73184e-05
6.52155e-05
0.000248314
0.000169676
0.000130069
7.02068e-05
0.000126319
4.87337e-05
6.25611e-05
3.20347e-05
4.87573e-05
3.02274e-05
3.87015e-05
6.22878e-05
5.27395e-05
8.14895e-05
7.81271e-05
8.9074e-05
0.000127565
0.000114672
0.000155994
0.000114716
0.000172265
0.000244467
0.000329638
0.000729783
0.000203897
0.00335551
3.44557e-05
9.52482e-05
0.000180525
0.00021143
2.809e-05
0.000324916
1.32001e-05
0.000104287
1.05568e-05
0.000119882
1.64283e-05
0.000120141
3.74546e-05
0.000111166
4.8756e-05
9.45242e-05
5.79232e-05
0.000114313
9.00436e-05
0.000122253
0.000119898
0.000120811
0.000179264
0.000106509
0.000228707
0.000155649
0.00056455
0.000267741
0.00313164
4.74833e-05
7.37558e-05
0.000239619
0.000149563
0.000122882
7.18199e-05
8.2873e-05
4.71967e-05
6.5551e-05
4.49388e-05
4.84847e-05
3.00865e-05
4.19983e-05
3.17257e-05
3.9802e-05
6.36366e-05
5.07975e-05
8.1923e-05
7.48284e-05
9.00517e-05
0.000119931
0.000112077
0.000143855
0.000123285
0.000158987
0.000253253
0.000293296
0.000673631
0.000241209
0.00324458
4.22842e-05
9.1706e-05
0.000178523
0.000220162
1.92128e-05
0.000289548
1.19597e-05
9.94718e-05
7.68503e-06
9.06468e-05
9.90057e-06
9.56786e-05
1.72512e-05
0.000100738
3.74777e-05
0.0001016
4.51639e-05
9.02784e-05
5.63466e-05
8.58891e-05
8.45942e-05
0.000118759
0.00011758
0.000125217
0.000183379
0.000116415
0.000227505
0.000164777
0.000543367
0.000281928
0.00307833
5.91851e-05
9.63126e-05
0.000226084
0.000128493
0.000125184
7.46618e-05
7.57468e-05
4.42937e-05
4.92854e-05
4.58375e-05
5.96761e-05
4.40844e-05
4.62471e-05
2.97097e-05
4.10259e-05
3.15101e-05
3.78201e-05
6.49781e-05
4.92066e-05
7.93173e-05
8.09065e-05
8.63628e-05
0.000116417
0.000112316
0.000140287
0.000123844
0.000134486
0.000258326
0.000265292
0.00067217
0.000253236
0.00319618
5.15933e-05
0.000102409
0.000188366
0.000209793
1.89048e-05
0.000267085
1.16021e-05
8.84722e-05
1.53922e-05
7.24146e-05
1.1155e-05
7.10474e-05
1.06765e-05
8.12999e-05
1.76e-05
8.90732e-05
3.29394e-05
9.27685e-05
4.06947e-05
8.50714e-05
5.4798e-05
9.2119e-05
8.506e-05
0.000117569
0.000114927
0.000120958
0.000182514
0.000115712
0.000222577
0.000167301
0.000560552
0.000290771
0.00307895
5.53013e-05
0.000144862
0.000178911
0.000114672
0.000122511
7.32299e-05
7.09268e-05
5.46468e-05
3.13874e-05
4.74964e-05
4.6366e-05
4.46989e-05
5.19011e-05
3.78535e-05
4.02268e-05
2.63707e-05
3.62593e-05
3.12389e-05
3.82257e-05
6.24132e-05
4.85164e-05
7.98786e-05
7.72129e-05
8.21544e-05
0.000109319
0.000110795
0.000131548
0.000129235
0.00012183
0.000267369
0.000243622
0.000639663
0.000267337
0.00318612
4.749e-05
9.46436e-05
0.000212892
0.000182043
1.98772e-05
0.000211391
1.92631e-05
5.55303e-05
1.90375e-05
6.59733e-05
1.7746e-05
5.89193e-05
1.08002e-05
6.52819e-05
9.25039e-06
7.25065e-05
1.74718e-05
7.86736e-05
3.11213e-05
8.51104e-05
3.80189e-05
8.16807e-05
5.24434e-05
8.73363e-05
8.3118e-05
0.00011949
0.000113639
0.000121642
0.000182307
0.000111591
0.000218242
0.000131591
0.000566912
0.000239857
0.00308041
5.36982e-05
0.000162049
0.000151735
0.000100795
0.000112226
7.19776e-05
6.66361e-05
6.00979e-05
3.04698e-05
5.00827e-05
3.05072e-05
4.46777e-05
4.33529e-05
4.0685e-05
4.18792e-05
3.49099e-05
3.53088e-05
2.23132e-05
3.47286e-05
3.03939e-05
3.62445e-05
6.19349e-05
4.79049e-05
7.80311e-05
7.57485e-05
7.31865e-05
9.8178e-05
0.00011037
0.000123464
0.000133951
0.000115036
0.000271284
0.000230655
0.000691725
0.000228732
0.00317889
4.6997e-05
8.61336e-05
0.000241573
0.000154816
2.02734e-05
0.000178091
2.40645e-05
5.00068e-05
2.6187e-05
4.10665e-05
2.17942e-05
5.59771e-05
1.75508e-05
4.99315e-05
9.74883e-06
5.59149e-05
8.48216e-06
5.82024e-05
1.91266e-05
6.95627e-05
2.89875e-05
7.14155e-05
3.72687e-05
6.72429e-05
5.08997e-05
8.26585e-05
7.93624e-05
0.000120482
0.000112521
0.000117228
0.000181341
0.000104976
0.000218498
0.000128169
0.000616732
0.000248085
0.00307817
4.4713e-05
0.000188135
0.000111779
8.09778e-05
0.000115576
5.83871e-05
6.40775e-05
4.60945e-05
3.78366e-05
5.62802e-05
2.73336e-05
5.00258e-05
2.59768e-05
3.93904e-05
3.65662e-05
3.29788e-05
3.45305e-05
2.32418e-05
3.29513e-05
2.06641e-05
3.33069e-05
2.90005e-05
3.92424e-05
5.31902e-05
5.21748e-05
7.23039e-05
7.12934e-05
7.34651e-05
9.89992e-05
0.000107697
0.000116647
0.000136585
0.000112212
0.000274604
0.000202559
0.000660803
0.000237448
0.00317469
4.53794e-05
7.81962e-05
0.000279544
0.000128248
2.16274e-05
0.0001566
2.17133e-05
3.63188e-05
3.95018e-05
3.13196e-05
3.39951e-05
3.85656e-05
2.06078e-05
4.76421e-05
1.647e-05
4.3215e-05
8.73525e-06
4.48889e-05
1.17743e-05
4.44316e-05
1.9034e-05
6.37119e-05
2.6967e-05
6.84647e-05
4.00691e-05
6.7512e-05
5.18089e-05
8.12959e-05
7.80391e-05
0.000119572
0.000107833
0.000117374
0.000181271
0.000103122
0.000217153
0.000139476
0.000601185
0.000253916
0.00307887
3.91262e-05
0.000214776
7.10373e-05
9.75033e-05
8.41424e-05
4.83552e-05
5.0415e-05
4.06183e-05
3.14603e-05
4.74605e-05
3.26595e-05
4.98524e-05
2.60969e-05
4.70765e-05
2.4782e-05
3.78663e-05
3.24093e-05
3.20808e-05
2.95563e-05
2.11935e-05
3.14618e-05
1.71222e-05
3.16613e-05
2.85215e-05
3.71082e-05
5.06237e-05
4.87932e-05
7.08416e-05
6.89562e-05
7.45513e-05
9.46387e-05
0.000113645
0.000114373
0.000138628
0.000107132
0.000274805
0.000190643
0.00065038
0.000204376
0.00316998
4.10684e-05
6.44362e-05
0.000306042
0.000100617
3.55329e-05
0.000118619
2.22332e-05
2.54174e-05
3.30827e-05
3.12433e-05
4.79092e-05
3.24753e-05
3.28048e-05
3.58405e-05
2.11351e-05
3.98331e-05
1.50952e-05
3.68424e-05
9.48952e-06
3.724e-05
1.35612e-05
3.94608e-05
1.71927e-05
5.98962e-05
2.44338e-05
6.28432e-05
3.98836e-05
6.47943e-05
5.24972e-05
7.88523e-05
7.48049e-05
0.000120038
0.00010498
0.000118249
0.000178164
0.000101419
0.000215023
0.000151793
0.00066215
0.000208
0.00308167
3.30059e-05
0.000219688
6.03731e-05
9.83012e-05
6.46812e-05
4.16397e-05
3.59616e-05
3.03376e-05
2.82078e-05
4.18049e-05
2.8321e-05
4.44326e-05
2.81061e-05
4.85308e-05
2.53021e-05
3.88214e-05
2.41851e-05
3.73367e-05
2.93667e-05
3.03429e-05
2.85202e-05
1.98749e-05
3.12786e-05
1.67559e-05
2.89606e-05
2.77615e-05
3.47829e-05
4.46487e-05
4.57317e-05
7.00408e-05
6.83083e-05
7.54493e-05
9.3459e-05
0.000114159
0.000115508
0.000140803
0.000104757
0.000275679
0.000163709
0.000686919
0.000217733
0.003164
3.88533e-05
5.26321e-05
0.000304475
8.8229e-05
5.32129e-05
9.54956e-05
2.19127e-05
2.31391e-05
2.65589e-05
2.16607e-05
3.73262e-05
2.75756e-05
4.33105e-05
2.79138e-05
3.01123e-05
3.16304e-05
1.65899e-05
3.37413e-05
1.36252e-05
3.18971e-05
9.33734e-06
3.41537e-05
1.33431e-05
3.48256e-05
1.67651e-05
5.20559e-05
2.35897e-05
5.9139e-05
4.15678e-05
6.22361e-05
5.36999e-05
7.55575e-05
7.30138e-05
0.000121391
0.000104262
0.000120567
0.000175395
0.000101153
0.000212103
0.000160773
0.000636824
0.000213238
0.00305154
3.01284e-05
0.000204985
5.13938e-05
0.000111603
4.943e-05
3.80504e-05
2.50788e-05
2.94399e-05
2.8469e-05
3.61208e-05
2.42363e-05
3.7351e-05
2.30218e-05
4.05795e-05
2.55788e-05
4.20793e-05
2.31808e-05
3.88486e-05
2.14206e-05
3.71813e-05
2.77289e-05
2.91388e-05
2.72302e-05
1.89365e-05
2.92162e-05
1.53303e-05
2.89015e-05
2.67405e-05
3.38975e-05
4.25364e-05
4.40537e-05
7.0513e-05
6.72055e-05
7.40686e-05
9.29854e-05
0.000112535
0.000115257
0.000140615
0.000102637
0.000273176
0.000163445
0.000658057
0.000225524
0.00311242
3.51786e-05
4.53371e-05
0.000301355
6.5336e-05
7.23062e-05
8.49868e-05
2.17402e-05
1.844e-05
2.29349e-05
2.44472e-05
2.85518e-05
1.94613e-05
3.7556e-05
2.17653e-05
4.12523e-05
2.17988e-05
2.90056e-05
2.66025e-05
1.50449e-05
2.82307e-05
1.34481e-05
2.84822e-05
9.88989e-06
3.04782e-05
1.28011e-05
3.08207e-05
1.64436e-05
4.43607e-05
2.3422e-05
5.16842e-05
4.17588e-05
5.95418e-05
5.44598e-05
7.32052e-05
7.1436e-05
0.000121667
0.000103752
0.000121648
0.000171722
0.000101801
0.000211204
0.000173719
0.000620629
0.000225657
0.00301097
2.87452e-05
0.000179623
4.93232e-05
0.000110892
4.54854e-05
3.60085e-05
2.29383e-05
2.52297e-05
2.96451e-05
3.20459e-05
2.69359e-05
3.46714e-05
1.90086e-05
3.3374e-05
2.08475e-05
3.76703e-05
2.34426e-05
3.79724e-05
2.05827e-05
3.81983e-05
1.99987e-05
3.56766e-05
2.36946e-05
2.71174e-05
2.57542e-05
1.69608e-05
2.73323e-05
1.54097e-05
3.03418e-05
2.62003e-05
3.51788e-05
4.12497e-05
4.34153e-05
7.21219e-05
6.72618e-05
7.50459e-05
9.38375e-05
0.000109503
0.000115193
0.000140069
0.000102021
0.000273762
0.000159232
0.000647981
0.000206424
0.00307863
3.87765e-05
3.89819e-05
0.000283646
5.72988e-05
7.77912e-05
7.89276e-05
1.77911e-05
1.88553e-05
2.22728e-05
1.93023e-05
2.2873e-05
2.25504e-05
2.94899e-05
1.81786e-05
3.42289e-05
1.8762e-05
4.51989e-05
1.93332e-05
2.91527e-05
2.21033e-05
1.60666e-05
2.57523e-05
1.29388e-05
2.48199e-05
1.00253e-05
2.76588e-05
1.31541e-05
2.98779e-05
1.6545e-05
3.87613e-05
2.31682e-05
4.87988e-05
3.99787e-05
5.79448e-05
5.65138e-05
7.03176e-05
7.05892e-05
0.000119217
0.000101621
0.000117328
0.000170713
0.000102102
0.00021
0.000184913
0.000671833
0.000195512
0.00298671
2.75564e-05
0.000183733
5.18495e-05
0.000111293
4.19043e-05
3.15465e-05
1.84059e-05
2.60529e-05
3.16115e-05
2.97278e-05
2.34588e-05
2.90068e-05
1.96681e-05
3.06861e-05
1.48113e-05
2.98735e-05
1.99438e-05
3.09062e-05
2.41802e-05
3.25275e-05
1.87761e-05
3.78141e-05
1.90154e-05
3.5347e-05
2.15287e-05
2.5672e-05
2.49947e-05
1.34859e-05
2.67887e-05
1.4066e-05
3.0837e-05
2.61598e-05
3.52925e-05
4.3755e-05
4.25065e-05
7.18085e-05
6.69873e-05
7.29282e-05
9.57615e-05
0.000108479
0.000115841
0.000139915
0.000101987
0.000274263
0.000141295
0.000677748
0.000220437
0.00305936
4.71691e-05
3.24597e-05
0.000279597
4.28173e-05
8.71568e-05
7.45608e-05
2.07752e-05
2.21887e-05
2.45845e-05
1.59804e-05
2.25693e-05
1.59994e-05
1.83864e-05
1.93935e-05
3.05891e-05
1.59587e-05
3.16773e-05
1.76089e-05
3.75392e-05
1.71535e-05
2.83967e-05
2.05142e-05
1.69101e-05
2.39168e-05
1.45001e-05
2.33099e-05
1.04326e-05
2.58661e-05
1.20296e-05
2.71343e-05
1.70447e-05
3.95709e-05
2.36789e-05
4.57309e-05
4.06558e-05
5.6462e-05
5.72111e-05
6.99606e-05
6.96209e-05
0.000117947
9.89788e-05
0.000114264
0.000165713
9.30925e-05
0.000206591
0.000192964
0.000660138
0.000203983
0.00297063
2.63464e-05
0.000214882
4.27415e-05
0.000114052
3.58826e-05
3.11005e-05
1.62756e-05
2.86359e-05
2.74165e-05
3.19595e-05
2.10542e-05
2.74603e-05
1.95048e-05
2.39481e-05
1.72087e-05
2.47478e-05
1.44306e-05
2.89048e-05
1.95873e-05
2.99626e-05
2.38304e-05
2.95115e-05
1.7981e-05
3.64528e-05
1.70644e-05
3.32755e-05
1.98546e-05
2.49959e-05
2.4221e-05
1.23631e-05
2.51224e-05
1.31787e-05
3.03108e-05
2.59236e-05
3.41841e-05
4.4801e-05
4.2252e-05
7.31873e-05
6.71335e-05
7.28743e-05
9.53709e-05
0.000107922
0.000115158
0.000136324
0.000102283
0.000270723
0.000143384
0.000656216
0.000232805
0.00303833
5.13757e-05
2.95169e-05
0.000281192
3.25591e-05
7.52474e-05
7.97252e-05
2.85005e-05
2.57013e-05
3.59408e-05
1.44817e-05
2.81594e-05
1.40652e-05
1.68923e-05
1.43135e-05
1.82306e-05
1.54432e-05
2.91958e-05
1.53781e-05
2.68315e-05
1.65336e-05
3.43042e-05
1.56892e-05
2.69328e-05
1.85646e-05
1.74596e-05
2.13257e-05
1.38115e-05
2.1808e-05
1.06101e-05
2.37119e-05
1.25943e-05
2.64042e-05
1.45814e-05
3.7302e-05
2.42041e-05
4.32927e-05
4.12693e-05
5.52668e-05
5.77124e-05
6.81622e-05
6.86158e-05
0.000117373
9.7552e-05
0.000110953
0.000161624
9.1246e-05
0.000206535
0.000206293
0.000665275
0.000178669
0.00294057
2.53832e-05
0.00022405
3.48222e-05
0.000116185
4.18802e-05
1.82924e-05
2.51873e-05
2.92238e-05
2.50745e-05
3.63011e-05
2.14171e-05
2.95035e-05
1.80455e-05
2.4751e-05
1.9308e-05
2.01347e-05
1.59485e-05
2.33906e-05
1.47693e-05
2.84101e-05
1.98062e-05
2.88948e-05
2.22826e-05
2.90318e-05
1.62368e-05
3.53865e-05
1.80861e-05
3.17522e-05
1.85459e-05
2.25349e-05
2.38182e-05
1.17014e-05
2.3575e-05
1.31882e-05
3.10858e-05
2.50289e-05
3.30913e-05
4.45729e-05
4.21467e-05
7.43485e-05
6.58825e-05
7.1072e-05
9.38424e-05
0.000107757
0.00011113
0.000133445
9.91771e-05
0.000271708
0.00014001
0.000685773
0.000215888
0.00300648
5.62355e-05
2.7655e-05
0.000295326
2.57108e-05
6.74113e-05
7.70485e-05
4.50134e-05
2.14368e-05
4.64515e-05
2.05183e-05
3.93863e-05
1.66917e-05
2.62673e-05
1.22518e-05
1.75751e-05
1.3398e-05
1.66924e-05
1.392e-05
2.62965e-05
1.42955e-05
2.52988e-05
1.54732e-05
3.0801e-05
1.42783e-05
2.65768e-05
1.74157e-05
1.69676e-05
1.98931e-05
1.45718e-05
1.97935e-05
1.1281e-05
2.15053e-05
1.26992e-05
2.52829e-05
1.54379e-05
3.66564e-05
2.46351e-05
4.07831e-05
4.2024e-05
5.40325e-05
5.86861e-05
6.78806e-05
6.37503e-05
0.000115105
9.48659e-05
0.00010233
0.000155758
9.27175e-05
0.000203513
0.000211657
0.000685682
0.000191241
0.00291156
2.45894e-05
0.000235794
3.4264e-05
0.000105259
5.58156e-05
2.25998e-05
2.64045e-05
3.88791e-05
2.14985e-05
4.96138e-05
2.1003e-05
3.67949e-05
1.89938e-05
2.96664e-05
1.82451e-05
2.27443e-05
1.71724e-05
1.68028e-05
1.54217e-05
2.25018e-05
1.44173e-05
2.66633e-05
2.00264e-05
2.94509e-05
2.17291e-05
2.84052e-05
1.75865e-05
3.46484e-05
1.70431e-05
2.82049e-05
1.844e-05
2.11537e-05
2.32178e-05
1.17503e-05
2.39061e-05
1.42264e-05
3.09349e-05
2.51919e-05
3.28175e-05
4.58617e-05
4.22567e-05
7.47343e-05
6.50207e-05
7.32164e-05
9.13705e-05
0.000103084
0.000109479
0.000136512
9.89708e-05
0.000271109
0.000129195
0.000659193
0.000228212
0.00298396
6.07784e-05
2.78375e-05
0.000296564
1.9588e-05
7.0038e-05
9.21041e-05
5.2196e-05
2.20876e-05
5.11516e-05
2.82618e-05
4.79961e-05
2.13508e-05
3.67554e-05
1.6062e-05
2.56353e-05
1.30797e-05
1.58271e-05
1.32189e-05
1.60412e-05
1.32192e-05
2.62444e-05
1.42385e-05
2.45702e-05
1.52616e-05
2.51402e-05
1.30628e-05
2.47717e-05
1.59011e-05
1.60511e-05
1.77825e-05
1.48053e-05
1.8377e-05
1.19653e-05
2.05457e-05
1.3253e-05
2.42043e-05
1.41067e-05
3.57278e-05
2.50419e-05
3.98457e-05
4.31537e-05
5.14422e-05
5.88392e-05
6.71954e-05
6.41873e-05
0.000112508
9.00792e-05
0.000100175
0.000154443
9.41828e-05
0.000202522
0.000220474
0.000672541
0.00019442
0.00288773
2.30469e-05
0.000234568
3.27251e-05
9.53763e-05
4.76706e-05
3.8158e-05
3.08409e-05
4.45538e-05
1.94051e-05
5.60696e-05
1.72129e-05
4.88981e-05
1.88199e-05
3.76786e-05
1.71093e-05
2.99908e-05
1.80607e-05
2.21381e-05
1.64311e-05
1.41951e-05
1.55986e-05
2.03374e-05
1.47406e-05
2.23506e-05
1.93039e-05
2.98138e-05
1.93156e-05
2.68627e-05
1.74137e-05
3.33986e-05
1.74309e-05
2.71607e-05
1.77827e-05
2.02556e-05
2.25817e-05
1.21452e-05
2.38675e-05
1.45399e-05
3.05145e-05
2.35417e-05
3.24808e-05
4.68567e-05
4.20055e-05
7.50928e-05
6.409e-05
7.29402e-05
8.87348e-05
0.000106415
0.000107606
0.00013696
9.99753e-05
0.000273233
0.00012659
0.000655088
0.000233045
0.00295489
6.43321e-05
2.78484e-05
0.000294825
2.28484e-05
5.15221e-05
7.97621e-05
5.77498e-05
1.86733e-05
4.34208e-05
3.20306e-05
4.86271e-05
2.36989e-05
4.23067e-05
1.97384e-05
3.49768e-05
1.75369e-05
2.30109e-05
1.3798e-05
1.5749e-05
1.20605e-05
1.25452e-05
1.22917e-05
2.5351e-05
1.4232e-05
2.23481e-05
1.51509e-05
2.47615e-05
1.26989e-05
2.52789e-05
1.54163e-05
1.67603e-05
1.75195e-05
1.51682e-05
1.73747e-05
1.28533e-05
2.02158e-05
1.40558e-05
2.36431e-05
1.47709e-05
3.47582e-05
2.66367e-05
3.86974e-05
4.3811e-05
5.05476e-05
6.02559e-05
6.61331e-05
6.41301e-05
0.000108466
9.13584e-05
9.92313e-05
0.000153418
9.54145e-05
0.000200519
0.000191685
0.000676603
0.000204215
0.00285729
2.14826e-05
0.000237409
4.45756e-05
9.37283e-05
4.99543e-05
4.60818e-05
2.91547e-05
4.65924e-05
2.09337e-05
5.17509e-05
1.9714e-05
5.87758e-05
1.73876e-05
4.56295e-05
1.82234e-05
3.76875e-05
1.64332e-05
3.05013e-05
1.69287e-05
2.10973e-05
1.58408e-05
1.31638e-05
1.46568e-05
2.00953e-05
1.47157e-05
1.88768e-05
1.83791e-05
2.78803e-05
1.81285e-05
2.68847e-05
1.77343e-05
3.1757e-05
1.54179e-05
2.56551e-05
1.74518e-05
1.96258e-05
2.25412e-05
1.23325e-05
2.42537e-05
1.46357e-05
3.08618e-05
2.40162e-05
3.31633e-05
4.79679e-05
4.16577e-05
7.64771e-05
6.32122e-05
7.3402e-05
8.75627e-05
0.000107345
0.000106862
0.000137451
9.9064e-05
0.000270512
0.000139453
0.000645724
0.000241606
0.00292074
6.30521e-05
3.43705e-05
0.000315328
2.63573e-05
5.71803e-05
7.75632e-05
5.37804e-05
1.76346e-05
3.59396e-05
3.63705e-05
3.85982e-05
2.8625e-05
4.41838e-05
2.56695e-05
3.89896e-05
2.12303e-05
3.24104e-05
1.80383e-05
2.17463e-05
1.34197e-05
1.57087e-05
1.17938e-05
1.21337e-05
1.22553e-05
2.45934e-05
1.34863e-05
1.99222e-05
1.50046e-05
2.50565e-05
1.23938e-05
2.48074e-05
1.39853e-05
1.70344e-05
1.74352e-05
1.47642e-05
1.75895e-05
1.37561e-05
1.98146e-05
1.44732e-05
2.35875e-05
1.54892e-05
3.36088e-05
2.71707e-05
3.86561e-05
4.47204e-05
4.97872e-05
6.1259e-05
6.52207e-05
6.47139e-05
9.74299e-05
9.11021e-05
9.82818e-05
0.000152291
9.6096e-05
0.000198844
0.000197783
0.000680704
0.000196046
0.00281686
2.26151e-05
0.000227325
6.8499e-05
9.29769e-05
6.11301e-05
5.88329e-05
2.53411e-05
4.79839e-05
2.07079e-05
4.83688e-05
2.39602e-05
5.16524e-05
1.9714e-05
4.72951e-05
1.62584e-05
4.40948e-05
1.92211e-05
3.66842e-05
1.60437e-05
2.99199e-05
1.69787e-05
2.04808e-05
1.52286e-05
1.30638e-05
1.38768e-05
1.70726e-05
1.43388e-05
1.9003e-05
1.79721e-05
2.75879e-05
1.68796e-05
2.69508e-05
1.78631e-05
3.10866e-05
1.49489e-05
2.49711e-05
1.77519e-05
1.93855e-05
2.27612e-05
1.31394e-05
2.46794e-05
1.55461e-05
3.08451e-05
2.45147e-05
3.36928e-05
4.98667e-05
4.16967e-05
7.77911e-05
6.23934e-05
7.35667e-05
9.26821e-05
0.000109404
0.000104794
0.000137587
9.66465e-05
0.000271985
0.000136741
0.000661072
0.000235429
0.00288145
5.94831e-05
3.36724e-05
0.00032937
2.76899e-05
7.49175e-05
6.05197e-05
5.5045e-05
1.8479e-05
3.70109e-05
4.05083e-05
2.81619e-05
3.0634e-05
3.61196e-05
2.66875e-05
3.78602e-05
2.49041e-05
3.89978e-05
2.08452e-05
3.053e-05
1.76568e-05
2.18397e-05
1.37455e-05
1.58461e-05
1.16063e-05
1.17641e-05
1.26182e-05
2.394e-05
1.28687e-05
1.91485e-05
1.46253e-05
2.27504e-05
1.19124e-05
2.36402e-05
1.35682e-05
1.68971e-05
1.71533e-05
1.45079e-05
1.7728e-05
1.46259e-05
1.96109e-05
1.49699e-05
2.39957e-05
1.60537e-05
3.30718e-05
2.74865e-05
3.86785e-05
4.46607e-05
4.92409e-05
6.20868e-05
6.42172e-05
6.58061e-05
9.81121e-05
9.13689e-05
9.75963e-05
0.000149011
9.79683e-05
0.000195763
0.000198056
0.000703001
0.000195489
0.00278102
2.0836e-05
0.00020007
6.29466e-05
8.67515e-05
4.91875e-05
6.45878e-05
2.86353e-05
4.51323e-05
2.48636e-05
4.27009e-05
2.49424e-05
4.47708e-05
2.12172e-05
4.54083e-05
1.65597e-05
4.4455e-05
1.59446e-05
4.26193e-05
1.87315e-05
3.56225e-05
1.76693e-05
3.09663e-05
1.65783e-05
2.01911e-05
1.4411e-05
1.30057e-05
1.42242e-05
1.66082e-05
1.3902e-05
1.87072e-05
1.77157e-05
2.6497e-05
1.61988e-05
2.74382e-05
1.77628e-05
3.00337e-05
1.493e-05
2.41429e-05
1.78497e-05
1.89885e-05
2.10466e-05
1.36262e-05
2.52434e-05
1.59293e-05
3.12866e-05
2.54013e-05
3.42269e-05
5.04374e-05
4.19832e-05
7.8917e-05
6.1395e-05
7.39039e-05
9.12964e-05
0.000109917
0.000104516
0.000138218
9.53395e-05
0.000270489
0.000131396
0.00066515
0.00023991
0.00284039
5.69528e-05
3.23563e-05
0.000339102
3.97062e-05
7.6076e-05
5.32181e-05
5.23849e-05
1.70618e-05
3.85161e-05
4.82941e-05
2.26113e-05
3.48232e-05
2.60492e-05
2.95718e-05
2.904e-05
2.54102e-05
3.61456e-05
2.37914e-05
3.83362e-05
1.75799e-05
3.16909e-05
1.87847e-05
2.24755e-05
1.42507e-05
1.57785e-05
1.14315e-05
1.17582e-05
1.1862e-05
2.26594e-05
1.22904e-05
1.94603e-05
1.4663e-05
2.25718e-05
1.15858e-05
2.25618e-05
1.32038e-05
1.64978e-05
1.72411e-05
1.41313e-05
1.72809e-05
1.51303e-05
2.07946e-05
1.55759e-05
2.46069e-05
1.72349e-05
3.32903e-05
2.82726e-05
3.84834e-05
4.56941e-05
4.86876e-05
6.34437e-05
6.22844e-05
6.69112e-05
9.80097e-05
9.11187e-05
9.74839e-05
0.000147334
9.67231e-05
0.000196791
0.000204113
0.000706681
0.000203545
0.00274608
2.00902e-05
0.000191006
7.90968e-05
8.88266e-05
5.03651e-05
7.17899e-05
3.61442e-05
4.01484e-05
3.27667e-05
3.83119e-05
2.89617e-05
4.16517e-05
2.51562e-05
3.86129e-05
1.96112e-05
4.19673e-05
1.59696e-05
4.16949e-05
1.54873e-05
4.02761e-05
2.0568e-05
3.4631e-05
1.75171e-05
2.97232e-05
1.64965e-05
2.07593e-05
1.39469e-05
1.29398e-05
1.39096e-05
1.67741e-05
1.37985e-05
1.87944e-05
1.73181e-05
2.61666e-05
1.55763e-05
2.72841e-05
1.76501e-05
2.9203e-05
1.50711e-05
2.1474e-05
1.7787e-05
1.88482e-05
2.15076e-05
1.39113e-05
2.58176e-05
1.64152e-05
3.17482e-05
2.59688e-05
3.5258e-05
5.03138e-05
4.08919e-05
7.99059e-05
6.08621e-05
7.43139e-05
9.02347e-05
0.000109566
0.000104773
0.000140401
9.05523e-05
0.00027055
0.000130554
0.000658718
0.000234565
0.00280038
5.49607e-05
2.86034e-05
0.000344765
4.37814e-05
8.4868e-05
5.15837e-05
4.60709e-05
2.09819e-05
4.64781e-05
5.53443e-05
2.83659e-05
4.08788e-05
1.76455e-05
3.00435e-05
2.55094e-05
2.49403e-05
2.78081e-05
2.4532e-05
3.51661e-05
2.45682e-05
3.93121e-05
1.82053e-05
3.24248e-05
2.04208e-05
2.34432e-05
1.46057e-05
1.50049e-05
1.10619e-05
1.18131e-05
1.17731e-05
2.21981e-05
1.19456e-05
1.82091e-05
1.43128e-05
2.24193e-05
1.10536e-05
2.18249e-05
1.32515e-05
1.5812e-05
1.73314e-05
1.47898e-05
1.74248e-05
1.55123e-05
2.08259e-05
1.54769e-05
2.53906e-05
1.79918e-05
3.31532e-05
2.78028e-05
3.87516e-05
4.65889e-05
5.04754e-05
6.46645e-05
6.22562e-05
6.82051e-05
9.75994e-05
9.11946e-05
9.79048e-05
0.000141993
8.6282e-05
0.000199463
0.000208589
0.000730692
0.000191293
0.00271036
1.90416e-05
0.000169865
8.72905e-05
9.94516e-05
5.28429e-05
7.30633e-05
4.23403e-05
3.55692e-05
4.16792e-05
3.43138e-05
2.77953e-05
3.70852e-05
2.47278e-05
3.7415e-05
2.05807e-05
3.2626e-05
1.95942e-05
3.58757e-05
1.63819e-05
4.05563e-05
1.60323e-05
3.98331e-05
2.1102e-05
3.55069e-05
1.83414e-05
2.93521e-05
1.63358e-05
2.04815e-05
1.34519e-05
1.30378e-05
1.34547e-05
1.68671e-05
1.34571e-05
1.78596e-05
1.68711e-05
2.59754e-05
1.48293e-05
2.65492e-05
1.67325e-05
2.81207e-05
1.4996e-05
2.07693e-05
1.78459e-05
1.86348e-05
2.11753e-05
1.41254e-05
2.67303e-05
1.70223e-05
3.16335e-05
2.58014e-05
3.70069e-05
4.97512e-05
4.10707e-05
8.04125e-05
6.03223e-05
7.52232e-05
8.96491e-05
0.000109148
0.000104534
0.000139933
9.29821e-05
0.000270509
0.000119454
0.000678568
0.000242192
0.00275888
5.3314e-05
2.71539e-05
0.000351508
4.69774e-05
9.38639e-05
4.55779e-05
4.2025e-05
2.47386e-05
4.99779e-05
5.79553e-05
2.88187e-05
4.70227e-05
2.24453e-05
3.4587e-05
1.74367e-05
2.91695e-05
2.56307e-05
2.32622e-05
2.7342e-05
2.38698e-05
3.06643e-05
2.34959e-05
3.46788e-05
1.8647e-05
3.22311e-05
2.01939e-05
2.33532e-05
1.49952e-05
1.6302e-05
1.06975e-05
1.17252e-05
1.16391e-05
2.10204e-05
1.15653e-05
1.81462e-05
1.39421e-05
2.17543e-05
1.0985e-05
2.19504e-05
1.35205e-05
1.54228e-05
1.74125e-05
1.45613e-05
1.74263e-05
1.606e-05
2.15141e-05
1.62042e-05
2.58567e-05
1.85984e-05
3.45144e-05
2.7996e-05
3.89587e-05
4.68712e-05
5.11035e-05
6.59937e-05
6.16656e-05
6.9676e-05
9.74643e-05
9.13572e-05
9.83548e-05
0.000139931
8.50021e-05
0.000202402
0.00021251
0.000735154
0.000199304
0.00267251
1.71391e-05
0.000147137
9.64423e-05
0.000103893
5.4447e-05
7.03534e-05
4.26453e-05
3.12661e-05
4.67348e-05
3.52707e-05
2.72008e-05
3.59643e-05
2.46249e-05
3.58215e-05
2.06477e-05
3.41535e-05
2.04598e-05
2.88566e-05
1.75844e-05
3.2686e-05
1.7214e-05
3.81096e-05
1.61996e-05
4.08894e-05
2.15224e-05
3.62845e-05
1.86425e-05
2.94609e-05
1.64379e-05
1.82056e-05
1.3583e-05
1.32546e-05
1.27177e-05
1.7132e-05
1.30005e-05
1.73999e-05
1.57178e-05
2.54347e-05
1.40198e-05
2.63995e-05
1.67279e-05
2.70298e-05
1.51824e-05
2.03657e-05
1.78454e-05
1.81005e-05
2.12553e-05
1.44824e-05
2.6473e-05
1.76615e-05
3.21348e-05
2.41814e-05
3.81722e-05
4.89929e-05
4.16237e-05
8.0444e-05
5.99239e-05
7.61054e-05
8.95645e-05
0.000108291
0.000104345
0.000136998
8.67758e-05
0.000272365
0.000120029
0.000672646
0.000254302
0.00271329
5.33558e-05
2.38417e-05
0.000319493
5.15604e-05
9.90995e-05
4.21777e-05
3.86076e-05
2.39258e-05
4.89338e-05
6.05731e-05
3.01081e-05
4.60297e-05
2.38188e-05
3.8869e-05
2.06475e-05
3.30057e-05
1.94144e-05
2.28544e-05
2.44969e-05
2.30676e-05
2.5118e-05
2.2946e-05
3.16318e-05
2.33308e-05
3.44787e-05
1.89549e-05
3.18993e-05
1.91077e-05
2.36915e-05
1.48701e-05
1.6357e-05
1.01569e-05
1.17787e-05
1.19117e-05
2.06362e-05
1.15301e-05
1.87001e-05
1.35887e-05
2.11943e-05
1.10572e-05
2.14379e-05
1.36954e-05
1.50409e-05
1.74395e-05
1.40609e-05
1.74244e-05
1.63695e-05
2.2104e-05
1.66013e-05
2.6985e-05
1.91299e-05
3.5215e-05
2.80965e-05
3.97188e-05
4.73922e-05
5.15794e-05
6.72062e-05
6.17644e-05
7.15402e-05
9.73872e-05
9.07925e-05
9.88139e-05
0.000135599
8.21731e-05
0.000202777
0.000219395
0.000730911
0.00021003
0.00263368
1.55061e-05
0.00012879
9.54559e-05
0.000108623
5.43911e-05
6.65776e-05
3.9829e-05
2.73479e-05
5.27017e-05
3.40246e-05
2.44068e-05
3.85377e-05
2.34394e-05
3.40284e-05
2.24746e-05
3.49268e-05
2.11091e-05
2.90693e-05
1.92455e-05
2.65075e-05
1.73202e-05
3.13606e-05
1.69917e-05
3.67815e-05
1.71975e-05
4.05019e-05
2.02841e-05
3.70774e-05
1.89833e-05
2.95334e-05
1.60382e-05
1.84058e-05
1.34261e-05
1.34097e-05
1.26712e-05
1.58722e-05
1.26977e-05