/*--------------------------------*- C++ -*----------------------------------*\
| =========                 |                                                 |
| \\      /  F ield         | OpenFOAM: The Open Source CFD Toolbox           |
|  \\    /   O peration     | Version:  2206                                  |
|   \\  /    A nd           | Website:  www.openfoam.com                      |
|    \\/     M anipulation  |                                                 |
\*---------------------------------------------------------------------------*/
FoamFile
{
    version     2.0;
    format      ascii;
    arch        "LSB;label=32;scalar=64";
    class       volVectorField;
    location    "180";
    object      U;
}
// * * * * * * * * * * * * * * * * * * * * * * * * * * * * * * * * * * * * * //

dimensions      [0 1 -1 0 0 0 0];

internalField   nonuniform List<vector> 
93840
(
(0.699266 -0.830424 5.25393e-18)
(0.720052 0.40496 5.79919e-18)
(0.636263 -0.841276 5.88654e-18)
(0.513217 -0.37608 2.59178e-18)
(0.689987 0.417369 6.53889e-18)
(0.626546 -0.770353 7.31404e-18)
(1.09153 0.38427 4.82986e-17)
(0.602046 -0.105164 7.82923e-18)
(0.818249 0.401694 7.92855e-18)
(0.685597 -0.652993 1.08554e-17)
(0.872872 -0.111676 -1.84914e-17)
(0.776781 0.0434692 7.15585e-17)
(0.733461 -0.0756876 1.18045e-17)
(0.973879 0.350355 -4.97919e-17)
(0.74347 -0.569327 -1.00072e-17)
(0.904191 0.0324313 -1.87148e-16)
(0.792685 -0.0263006 -3.11442e-17)
(0.52503 0.0664973 1.29949e-17)
(0.649361 -0.231349 1.805e-17)
(0.942194 0.243018 -8.09232e-17)
(0.752792 -0.527155 2.36798e-18)
(0.798982 -0.0294862 -1.32941e-17)
(0.937287 0.0335802 -2.37032e-16)
(0.779313 0.0138872 4.26217e-18)
(0.881675 0.302915 1.35072e-18)
(0.49225 -0.174088 1.83482e-17)
(0.843035 0.178957 4.06946e-17)
(0.74523 -0.574346 -9.80801e-19)
(0.835944 0.0328779 8.38253e-17)
(0.808684 -0.0305288 1.16727e-17)
(0.922249 0.0678937 -1.10717e-16)
(0.833015 -0.0311362 -8.23666e-18)
(0.825746 0.238865 4.09224e-17)
(0.632917 -0.127103 1.14414e-18)
(0.81651 0.205415 -4.1639e-17)
(0.720423 -0.591983 -1.03971e-17)
(0.809549 -0.0276221 8.91875e-17)
(0.887287 0.0362737 1.39175e-16)
(0.810909 0.00567125 -1.63663e-17)
(0.896425 0.0424132 -1.10653e-16)
(0.792417 -0.0303027 -6.11238e-17)
(0.926241 0.188803 6.79815e-18)
(0.686897 -0.0108845 -2.03756e-17)
(0.79561 0.22572 3.66813e-17)
(0.701821 -0.598435 3.87096e-18)
(0.850072 0.0390618 -6.75645e-18)
(0.823524 -0.0251136 9.4074e-17)
(0.921823 0.0607702 8.33213e-17)
(0.765478 0.0307447 1.29072e-16)
(0.86246 0.016523 5.47922e-17)
(0.808648 0.00398565 -5.98576e-17)
(0.796338 0.0169642 6.25154e-17)
(0.736413 -0.0208361 5.53103e-18)
(0.81127 0.224178 -3.22693e-17)
(0.687197 -0.599886 -5.23655e-18)
(0.802945 -0.018961 1.47231e-16)
(0.911973 0.0407338 1.33578e-17)
(0.775821 0.00841425 5.8241e-17)
(0.887375 0.0285209 3.41901e-17)
(0.737621 0.0117028 1.29158e-17)
(0.819606 0.028924 3.12538e-17)
(0.772962 0.0295252 -6.13259e-17)
(0.801875 0.0483533 -1.23049e-17)
(0.754938 -0.0240031 -1.54814e-17)
(0.794908 0.234938 1.73201e-17)
(0.675693 -0.602473 -4.39569e-19)
(0.849994 0.0358386 -1.38073e-16)
(0.809779 -0.016771 1.54001e-16)
(0.923955 0.0591454 -6.31755e-18)
(0.805844 0.0270883 1.02367e-17)
(0.888059 0.0203807 4.52777e-17)
(0.823373 0.0479737 -8.11886e-17)
(0.873428 0.0150074 4.34695e-18)
(0.811565 0.0487264 -7.67263e-17)
(0.799147 0.0165014 6.58603e-17)
(0.758715 -0.0224041 -5.51423e-18)
(0.806283 0.228389 -2.7583e-17)
(0.666746 -0.602414 -2.7276e-18)
(0.786893 -0.0176499 -1.37088e-17)
(0.88825 0.0292647 -1.9941e-16)
(0.772739 0.00643052 9.48202e-17)
(0.916262 0.0283538 -1.18146e-17)
(0.83067 0.00504826 1.72329e-18)
(0.902908 0.0347373 2.4435e-17)
(0.8551 0.0272461 1.23785e-16)
(0.855279 0.0467335 6.824e-17)
(0.765195 0.020255 -3.98858e-17)
(0.795706 0.0349101 -3.42919e-18)
(0.762714 -0.0235545 -6.19527e-18)
(0.793729 0.236097 9.43786e-18)
(0.659056 -0.604009 -2.31872e-18)
(0.836284 0.0338466 -1.36867e-16)
(0.779387 -0.0230315 4.07337e-17)
(0.89931 0.0488054 -9.50612e-17)
(0.771076 0.0396301 5.3441e-17)
(0.896981 0.0141326 1.79056e-17)
(0.828897 0.0493624 7.08682e-18)
(0.895215 0.00365739 -6.63232e-17)
(0.79199 0.0396336 -1.64745e-16)
(0.851686 0.0142045 -1.79368e-17)
(0.805594 0.044196 -9.28514e-17)
(0.802625 0.0200742 4.69635e-17)
(0.76435 -0.0213526 -2.75872e-18)
(0.803068 0.233651 -2.50147e-17)
(0.65241 -0.603596 -2.91248e-18)
(0.787473 -0.0199865 -2.46931e-17)
(0.854698 0.0320902 -1.72038e-16)
(0.744837 -0.00952168 5.52131e-17)
(0.858 0.0258185 -1.40777e-16)
(0.805307 0.00813561 -8.47368e-17)
(0.886354 0.0466456 -8.0736e-17)
(0.842657 0.00848861 -4.84392e-17)
(0.901678 0.0566617 -3.38813e-17)
(0.860913 0.01895 1.02914e-16)
(0.875815 0.0593075 8.73256e-17)
(0.764469 0.0143765 -1.5457e-17)
(0.786322 0.0339441 -1.70377e-17)
(0.768041 -0.0202502 -4.77278e-18)
(0.793657 0.238838 6.29164e-18)
(0.646414 -0.604533 -2.86022e-18)
(0.839659 0.0401404 6.54469e-17)
(0.771179 -0.0215599 -5.03623e-17)
(0.85836 0.0435917 -2.04417e-16)
(0.741556 0.0280701 -3.57522e-17)
(0.86683 0.0152544 -8.80416e-17)
(0.803159 0.0366569 -3.72798e-17)
(0.875336 0.00559643 1.48071e-16)
(0.812307 0.0515114 3.50659e-17)
(0.922583 0.031119 -4.47113e-18)
(0.81317 0.035535 -1.48122e-16)
(0.863712 0.00762705 -8.95016e-18)
(0.801353 0.0368796 -8.99445e-17)
(0.801063 0.0303463 5.34616e-17)
(0.770558 -0.0174474 -3.87019e-18)
(0.802392 0.236676 -2.34561e-17)
(0.641003 -0.603822 -2.90516e-18)
(0.794581 -0.00932782 1.29442e-16)
(0.847955 0.0406713 1.50705e-16)
(0.741254 0.00488721 9.81257e-17)
(0.850375 0.0305701 -1.79992e-16)
(0.785982 -0.00729552 -3.99422e-17)
(0.866118 0.0448435 8.16782e-17)
(0.822614 0.0245947 5.59518e-17)
(0.932475 0.0756736 1.14931e-19)
(0.850489 0.0145779 -8.41053e-17)
(0.881115 0.0385973 -4.17237e-17)
(0.864581 0.015645 2.87734e-17)
(0.885542 0.0553283 8.08707e-17)
(0.773147 0.00325063 1.38982e-17)
(0.781702 0.0394838 -2.76526e-17)
(0.773992 -0.0172719 -5.13512e-18)
(0.793869 0.240764 3.05171e-18)
(0.635828 -0.604415 -2.18153e-18)
(0.846694 0.0334807 -5.03508e-17)
(0.783489 0.000788499 1.41054e-16)
(0.862144 0.0366416 9.1563e-17)
(0.74757 0.0174172 1.7515e-16)
(0.854548 0.0228929 1.09853e-16)
(0.808733 0.063263 -2.50915e-17)
(0.872342 0.0144256 -2.12119e-16)
(0.818081 0.0359873 -8.72003e-17)
(0.893662 0.0111555 8.49437e-17)
(0.826998 0.041036 2.55704e-17)
(0.936364 0.026353 3.86631e-17)
(0.799849 0.0428956 -2.00164e-16)
(0.845811 0.0084608 7.49056e-18)
(0.799488 0.032729 -7.49679e-17)
(0.807719 0.038512 4.73792e-17)
(0.775914 -0.0154291 -3.13568e-18)
(0.801172 0.238164 -2.2136e-17)
(0.63113 -0.603385 -3.86278e-18)
(0.804614 -0.01156 2.76748e-17)
(0.855175 0.0236211 -1.1855e-17)
(0.755316 0.00669638 4.3998e-17)
(0.861693 0.0269497 8.30714e-17)
(0.806876 -0.000474644 1.54429e-16)
(0.863536 0.0393619 -3.53589e-17)
(0.829938 0.0154829 2.7396e-17)
(0.89516 0.0530178 9.61098e-18)
(0.807701 0.033927 9.45331e-17)
(0.879055 0.0476053 1.00873e-17)
(0.84742 0.015138 -2.26996e-17)
(0.886814 0.0374277 -5.10381e-17)
(0.852699 0.0211281 1.33757e-17)
(0.878391 0.058914 8.47605e-17)
(0.795985 0.0201234 -2.40219e-17)
(0.784404 0.044288 -3.46606e-17)
(0.777546 -0.0159139 -4.43911e-18)
(0.793523 0.241748 1.86375e-18)
(0.626393 -0.603556 -2.95077e-18)
(0.8522 0.0258314 -6.95646e-17)
(0.790795 -0.0144067 2.55891e-17)
(0.863568 0.0261781 1.82025e-17)
(0.758493 0.0173921 1.71422e-17)
(0.850031 0.0277266 -1.02431e-17)
(0.799617 0.058097 -8.14791e-17)
(0.869198 0.0215833 7.28665e-17)
(0.801327 0.0600005 -2.98911e-18)
(0.864723 0.0144736 -2.00202e-16)
(0.821885 0.0122035 -2.03228e-16)
(0.900127 0.0121005 3.39273e-17)
(0.826149 0.0302707 5.62978e-17)
(0.919935 0.0198266 5.73034e-17)
(0.833587 0.0245967 -3.99209e-17)
(0.841969 0.00746119 -5.25117e-17)
(0.806511 0.0265607 -3.67425e-17)
(0.813137 0.038876 4.20408e-17)
(0.778502 -0.0150713 -2.70208e-18)
(0.799528 0.23851 -2.07706e-17)
(0.622189 -0.602267 -5.17861e-18)
(0.813298 -0.0191117 -1.54005e-16)
(0.861413 0.0245884 -1.65423e-16)
(0.767254 -0.0130695 -5.15123e-17)
(0.862067 0.0215372 -2.80653e-17)
(0.807064 0.0172939 -1.09329e-17)
(0.867712 0.0460106 1.42289e-16)
(0.826999 0.0219396 3.02387e-16)
(0.897363 0.0469012 1.98057e-16)
(0.809012 0.00951194 5.68573e-17)
(0.866048 0.043562 -3.06484e-19)
(0.816415 0.0285726 1.27605e-16)
(0.878776 0.0406564 4.17377e-17)
(0.834777 0.0162994 -8.00058e-17)
(0.861422 0.0389528 -7.2085e-17)
(0.863732 0.0150239 1.72082e-17)
(0.862769 0.0577843 8.15771e-17)
(0.807501 0.0259563 -1.92466e-17)
(0.787861 0.0483453 -2.47917e-17)
(0.779339 -0.0159998 -2.60254e-18)
(0.792588 0.241976 3.32608e-20)
(0.617894 -0.60187 -2.28691e-18)
(0.859322 0.0308766 3.02999e-16)
(0.807104 -0.00931401 -1.29957e-16)
(0.866881 0.0438353 -1.4338e-16)
(0.770578 0.0413038 -9.91536e-17)
(0.855165 0.0241866 -1.49059e-16)
(0.805214 0.030959 -5.224e-17)
(0.878799 0.014737 -1.10884e-16)
(0.787531 0.0453389 -2.25339e-16)
(0.872438 0.0198138 4.73054e-17)
(0.799108 0.0307294 4.84926e-17)
(0.880073 0.0202109 -1.19229e-16)
(0.822721 0.0133291 -1.7256e-16)
(0.886585 0.0129102 -5.57179e-18)
(0.822635 0.0236301 1.90846e-17)
(0.888252 0.0275602 -3.10787e-18)
(0.844643 0.0381896 -1.51276e-16)
(0.861481 0.0375427 2.49926e-17)
(0.806458 0.0239567 -5.1336e-17)
(0.812355 0.0390306 5.89863e-17)
(0.780226 -0.0160311 -5.30411e-19)
(0.79763 0.23854 -2.18923e-17)
(0.614038 -0.600607 -5.32762e-18)
(0.819337 -0.0208906 -2.8254e-16)
(0.871932 0.0273368 2.0759e-16)
(0.781206 0.00685522 -3.1056e-17)
(0.867877 0.0273547 -1.30623e-16)
(0.818624 0.000669197 2.41494e-17)
(0.879785 0.0420268 1.29198e-17)
(0.828189 0.0347333 -9.30477e-17)
(0.902517 0.0491559 -9.00815e-17)
(0.79551 0.00905841 1.67646e-16)
(0.866094 0.0407326 2.25028e-16)
(0.809932 0.0172004 6.85839e-17)
(0.878532 0.0425274 7.10704e-18)
(0.814208 0.0245645 1.34275e-16)
(0.868758 0.0377587 9.59342e-17)
(0.8443 0.0219656 -2.31482e-19)
(0.88678 0.0311177 -8.75881e-19)
(0.848492 0.0120624 -1.35853e-17)
(0.877264 0.0482516 5.00839e-17)
(0.808276 0.018651 -3.96294e-17)
(0.78682 0.0499101 -3.63214e-17)
(0.780748 -0.0173108 -3.54284e-18)
(0.790848 0.24255 -2.463e-18)
(0.610221 -0.599662 -2.88864e-18)
(0.865644 0.0382995 -1.2639e-17)
(0.823981 -0.000652078 -2.34286e-16)
(0.870444 0.032142 2.23945e-16)
(0.788732 0.0257627 9.10348e-17)
(0.867478 0.0318485 4.01283e-17)
(0.820324 0.0356063 4.47062e-17)
(0.893655 0.026585 -1.41522e-16)
(0.797628 0.00997467 -3.37241e-17)
(0.894143 0.0147355 -3.46297e-17)
(0.814572 0.0412283 -1.83788e-16)
(0.874031 0.0267665 1.31898e-17)
(0.810534 0.0234725 6.61276e-17)
(0.878813 0.0268305 -1.01204e-16)
(0.822406 0.0176637 -8.98767e-17)
(0.882455 0.0179918 2.24883e-17)
(0.838001 0.0177383 3.34412e-17)
(0.897393 0.0301528 7.14759e-18)
(0.834301 0.0373241 -1.11055e-16)
(0.860241 0.0249526 -1.27291e-17)
(0.804946 0.0204825 -9.44672e-18)
(0.811206 0.0408794 5.20312e-17)
(0.78181 -0.0179959 3.48115e-19)
(0.79516 0.238847 -2.22025e-17)
(0.606742 -0.598361 -2.4288e-18)
(0.822311 -0.0116428 3.40248e-17)
(0.876226 0.0272115 1.20935e-16)
(0.796188 0.0178964 -2.09456e-16)
(0.878741 0.0283359 1.81212e-16)
(0.829065 -0.00422246 5.66319e-17)
(0.885716 0.0313805 -9.70128e-17)
(0.839548 0.0287482 -1.97859e-16)
(0.918617 0.0588887 -7.17327e-17)
(0.816854 0.0339491 -1.04477e-16)
(0.875303 0.0561719 -1.61547e-16)
(0.813641 0.0159335 1.6195e-16)
(0.884717 0.0378316 2.4667e-16)
(0.811658 0.0248087 8.70338e-17)
(0.871905 0.0425078 -8.54634e-17)
(0.813485 0.0259576 9.84673e-17)
(0.879489 0.0346426 5.36606e-17)
(0.829429 0.0255205 -1.34365e-17)
(0.902267 0.0324908 -2.01001e-18)
(0.849148 0.0059465 -4.333e-18)
(0.861539 0.0607858 7.16397e-17)
(0.813114 0.021368 -9.53787e-18)
(0.787726 0.0543835 -4.05146e-17)
(0.782278 -0.0193782 -3.88282e-18)
(0.788797 0.24276 -3.04095e-18)
(0.603256 -0.597048 -5.8387e-18)
(0.863479 0.03443 1.29004e-16)
(0.826118 -0.00704719 -1.0369e-17)
(0.864352 0.0150311 1.76367e-16)
(0.799831 -7.39728e-05 -3.7032e-16)
(0.879276 0.0368764 -1.56228e-16)
(0.842033 0.0459713 -7.05557e-17)
(0.910641 0.0386127 1.61253e-17)
(0.813435 0.0232851 1.28494e-16)
(0.887742 0.027518 -4.91429e-17)
(0.80822 0.0338775 -7.3124e-17)
(0.873321 0.0355267 5.31725e-18)
(0.806458 0.0462334 -2.33447e-16)
(0.872502 0.0325887 -1.14347e-17)
(0.813123 0.0244878 6.75635e-17)
(0.877075 0.0346903 -4.28785e-17)
(0.823268 0.0275777 -1.04192e-16)
(0.884698 0.0307607 2.52748e-17)
(0.830108 0.025174 4.75992e-17)
(0.900293 0.0310287 -9.17871e-18)
(0.842103 0.0276056 -8.72861e-17)
(0.852661 0.017132 -3.58614e-17)
(0.805545 0.0179293 -2.66118e-17)
(0.810656 0.0429776 4.74949e-17)
(0.782796 -0.0198771 8.64054e-19)
(0.792226 0.239486 -2.06311e-17)
(0.600164 -0.595485 -3.10625e-18)
(0.818355 -0.0106278 2.93129e-16)
(0.869626 0.0320887 1.74257e-16)
(0.794353 -0.00032681 -1.3845e-16)
(0.881193 0.0358025 2.94911e-16)
(0.834833 0.0125603 -1.23391e-16)
(0.886419 0.0246646 -3.5625e-17)
(0.828731 0.0163936 1.02318e-16)
(0.908946 0.0505418 2.47976e-16)
(0.836855 0.0328562 -8.22924e-19)
(0.891903 0.0532596 -9.39634e-17)
(0.829348 0.0283937 -6.75493e-17)
(0.877133 0.0532249 -1.21304e-16)
(0.808263 0.0290972 1.42909e-16)
(0.866419 0.0416669 2.74271e-16)
(0.811629 0.026401 7.72401e-17)
(0.873428 0.0431133 -7.50828e-17)
(0.818405 0.030584 1.28893e-16)
(0.868444 0.0376802 4.17457e-17)
(0.831285 0.0214499 -5.05338e-18)
(0.894787 0.032669 2.52558e-17)
(0.850854 0.0186625 -5.88009e-17)
(0.845375 0.0615528 6.5618e-17)
(0.820746 0.0192675 -7.56339e-18)
(0.788197 0.0544916 -4.2478e-17)
(0.783184 -0.0208607 -4.30092e-19)
(0.78672 0.242408 -2.58399e-18)
(0.597237 -0.594093 -5.41549e-18)
(0.857395 0.0281664 -5.87669e-16)
(0.819055 0.000497958 2.46329e-16)
(0.853015 0.0236264 1.76246e-16)
(0.802855 0.00927579 -1.2881e-16)
(0.869109 0.0218212 3.52854e-16)
(0.837957 0.0395077 3.73048e-16)
(0.907546 0.0435435 3.68027e-16)
(0.822939 0.0328789 1.16248e-16)
(0.879868 0.0335484 9.04811e-17)
(0.827829 0.0283849 1.68263e-16)
(0.884987 0.0242026 -1.06936e-16)
(0.819001 0.0339376 -9.39785e-17)
(0.878958 0.0382291 -3.82108e-18)
(0.808791 0.0434821 -2.41454e-16)
(0.86068 0.0396331 1.6393e-17)
(0.814064 0.0322238 7.88076e-17)
(0.867345 0.0359119 -9.92199e-17)
(0.828201 0.0290568 -9.24244e-17)
(0.883321 0.0291046 1.10558e-18)
(0.827179 0.0344689 3.51666e-17)
(0.887668 0.0290762 2.21168e-17)
(0.852256 0.0191441 -6.57552e-17)
(0.849586 0.0301009 -1.65213e-17)
(0.812711 0.0195797 -1.31987e-17)
(0.812352 0.0460959 3.98265e-17)
(0.783515 -0.0215588 1.2758e-18)
(0.789181 0.240206 -1.72766e-17)
(0.594607 -0.592229 -2.7954e-18)
(0.809362 -0.015013 2.90541e-16)
(0.869118 0.0254009 -6.2059e-16)
(0.791205 -0.00544531 1.23573e-16)
(0.869866 0.02665 1.83949e-16)
(0.828097 0.0165386 -2.00445e-16)
(0.880233 0.028334 -2.31656e-16)
(0.81871 0.0181929 -2.82659e-16)
(0.907449 0.0416321 -4.12583e-16)
(0.835415 0.0259913 -1.90348e-16)
(0.899423 0.0434606 2.03206e-16)
(0.839844 0.0300343 -1.70512e-17)
(0.893658 0.0506643 -3.01414e-17)
(0.829281 0.0267688 -3.90822e-17)
(0.878212 0.0491898 -1.35138e-16)
(0.809935 0.0315475 1.28022e-16)
(0.864611 0.0373465 2.07011e-16)
(0.81903 0.0266592 1.1087e-16)
(0.872483 0.0428214 9.79368e-18)
(0.826483 0.0354403 3.24781e-17)
(0.880486 0.0348193 6.58254e-17)
(0.838705 0.0249467 1.66553e-17)
(0.878259 0.0381154 2.804e-17)
(0.858945 0.0183493 -7.04235e-17)
(0.854588 0.0552151 5.81665e-17)
(0.822693 0.0192704 -6.2314e-18)
(0.789113 0.0597823 -2.23143e-17)
(0.784017 -0.0221368 8.4643e-20)
(0.783997 0.242719 -5.16042e-18)
(0.591957 -0.590467 -4.47841e-18)
(0.844441 0.0255078 1.73511e-16)
(0.811122 -0.00796144 2.44159e-16)
(0.849401 0.0263855 -5.90515e-16)
(0.794568 0.0104922 -6.83258e-17)
(0.857384 0.0200067 2.23986e-16)
(0.832788 0.0362047 2.25464e-16)
(0.891774 0.0417525 1.05661e-16)
(0.823553 0.039106 1.22426e-16)
(0.88237 0.0330189 3.80034e-16)
(0.830475 0.019392 1.97178e-16)
(0.883367 0.0324483 -7.18195e-18)
(0.828399 0.0260745 1.32622e-16)
(0.888512 0.0250837 -3.1309e-17)
(0.818845 0.0351626 -5.58496e-17)
(0.879581 0.0389881 1.48676e-17)
(0.811042 0.0424338 -2.82255e-16)
(0.858699 0.0429861 -5.24685e-17)
(0.820122 0.0350232 7.32005e-17)
(0.862099 0.0403571 -8.30721e-17)
(0.831481 0.0306498 -1.62803e-17)
(0.877519 0.0346097 2.22277e-17)
(0.832629 0.0312041 1.47802e-17)
(0.876911 0.0376377 -4.31572e-18)
(0.855476 0.0196958 -6.3003e-17)
(0.850808 0.0248439 -1.42646e-17)
(0.808592 0.0140673 -4.28686e-17)
(0.810829 0.0488285 2.68043e-17)
(0.783921 -0.0236642 1.1037e-18)
(0.785528 0.24101 -1.5309e-17)
(0.589829 -0.588415 -2.1436e-18)
(0.79664 -0.014487 -4.03712e-16)
(0.856521 0.0302819 1.18613e-16)
(0.784119 -0.00983751 4.44044e-16)
(0.853988 0.0275105 -3.49536e-16)
(0.822057 0.0226135 -3.99786e-16)
(0.872047 0.0347012 -3.98944e-16)
(0.802643 0.0109337 -4.14552e-16)
(0.895741 0.0338709 -3.24191e-16)
(0.822242 0.0132504 -2.51269e-16)
(0.893646 0.0365786 -4.77532e-16)
(0.831434 0.0317836 -2.89874e-16)
(0.899682 0.0417324 8.84656e-17)
(0.838799 0.0285173 2.65005e-18)
(0.889873 0.0456761 -5.00768e-17)
(0.83462 0.0295587 -7.1584e-17)
(0.880914 0.046598 -1.22604e-16)
(0.812459 0.0289533 9.87e-17)
(0.864001 0.0398814 2.54437e-16)
(0.825518 0.0273495 1.28463e-16)
(0.874115 0.0413539 -3.43254e-17)
(0.822743 0.0397003 -1.08594e-17)
(0.866084 0.0342742 3.07455e-17)
(0.841777 0.0279614 9.23362e-18)
(0.878806 0.0426831 -1.00299e-17)
(0.854462 0.0174248 -5.31001e-17)
(0.861944 0.0519555 4.00473e-17)
(0.825599 0.0285432 3.21086e-17)
(0.792162 0.0601386 -3.3263e-17)
(0.78449 -0.0253197 4.68183e-19)
(0.780485 0.242885 -4.87619e-19)
(0.587685 -0.586415 -4.02345e-18)
(0.833876 0.028505 4.21816e-16)
(0.805546 -0.00576293 -3.65342e-16)
(0.844874 0.0287946 -2.03087e-16)
(0.786498 0.0162498 5.81439e-16)
(0.843164 0.0193988 1.57075e-16)
(0.815182 0.0269586 -4.05236e-18)
(0.874982 0.0350888 1.34222e-16)
(0.820754 0.0452506 2.89186e-16)
(0.876221 0.040169 2.23774e-16)
(0.814952 0.0364542 -9.47817e-18)
(0.878169 0.0338579 3.81007e-16)
(0.830962 0.0245866 2.00258e-16)
(0.899432 0.03811 4.48429e-17)
(0.826103 0.0232728 1.77765e-16)
(0.88753 0.0353505 -5.70973e-18)
(0.827802 0.0322521 -1.45854e-17)
(0.881597 0.0356951 -2.333e-17)
(0.820481 0.0391469 -2.0966e-16)
(0.862024 0.0416807 -8.2478e-17)
(0.819975 0.0357749 6.97053e-17)
(0.873071 0.0413657 -3.47303e-17)
(0.827815 0.0321328 -1.01426e-16)
(0.878737 0.0364787 -1.3026e-17)
(0.839686 0.032756 1.19839e-17)
(0.878615 0.0345711 6.79939e-17)
(0.858164 0.0250131 -5.17372e-17)
(0.857837 0.0415122 4.75019e-18)
(0.803773 0.0173713 -4.01164e-17)
(0.810216 0.050878 3.816e-17)
(0.783817 -0.0279457 1.31441e-18)
(0.780492 0.242742 -1.769e-17)
(0.585917 -0.584271 -2.26169e-18)
(0.788116 -0.0161832 -1.41121e-16)
(0.848522 0.0327581 3.63569e-16)
(0.789981 -0.00392931 -2.84947e-17)
(0.841793 0.0224348 -3.52463e-16)
(0.811852 0.0130625 4.90736e-16)
(0.855322 0.034791 3.27952e-16)
(0.791671 0.0119569 3.62794e-16)
(0.8812 0.0388998 1.73966e-16)
(0.8021 -0.00054919 -2.44195e-16)
(0.881043 0.0339858 -3.34248e-16)
(0.822385 0.0141449 -2.34151e-16)
(0.895848 0.0370715 -3.18556e-16)
(0.839682 0.0319295 -1.56999e-16)
(0.918302 0.0392404 5.46441e-17)
(0.840134 0.0192372 -6.73902e-19)
(0.895953 0.0380765 4.08932e-18)
(0.826274 0.0316877 -7.28483e-17)
(0.865711 0.0507028 -1.78842e-16)
(0.813332 0.0285281 4.15643e-17)
(0.867361 0.0416543 3.1285e-16)
(0.827233 0.0262748 1.31869e-16)
(0.875472 0.0410706 -4.96748e-17)
(0.823244 0.0400804 6.17794e-17)
(0.86936 0.0390986 6.97305e-17)
(0.844248 0.0288409 3.0561e-17)
(0.882961 0.045019 -2.96987e-17)
(0.846788 0.0193466 -8.43191e-17)
(0.864522 0.045511 -3.36888e-18)
(0.818267 0.0262361 6.25779e-18)
(0.794545 0.0576336 -4.98766e-17)
(0.783984 -0.0309059 2.79742e-19)
(0.775861 0.245317 -7.19887e-18)
(0.584254 -0.582066 -1.05425e-17)
(0.830649 0.0343663 -6.8907e-17)
(0.79258 -0.00884532 -1.21807e-16)
(0.845227 0.0287561 4.13014e-16)
(0.77808 0.00197266 8.45315e-17)
(0.830045 0.0185612 -7.71373e-16)
(0.79841 0.0299958 -5.75422e-16)
(0.860339 0.035498 -3.04864e-16)
(0.810957 0.0350433 -3.17317e-16)
(0.862026 0.0455335 -1.3839e-16)
(0.803183 0.0472213 1.52674e-16)
(0.873254 0.0466903 1.12434e-16)
(0.81095 0.0367674 4.93004e-17)
(0.890036 0.0358278 4.11325e-18)
(0.823759 0.022168 1.99016e-16)
(0.876918 0.040582 6.65209e-18)
(0.834059 0.0250241 1.97771e-16)
(0.891964 0.0362431 2.00163e-17)
(0.83435 0.0306621 -4.6866e-17)
(0.882664 0.0341438 -9.29677e-18)
(0.822252 0.0372141 -1.24496e-16)
(0.864354 0.0414032 -8.4765e-17)
(0.816857 0.0384381 8.60368e-17)
(0.876291 0.0406156 -3.30459e-17)
(0.833229 0.0309066 -2.29555e-16)
(0.881888 0.0363757 3.10196e-17)
(0.840661 0.0290075 -1.16545e-17)
(0.885862 0.0414688 6.35187e-18)
(0.842924 0.0260962 -7.33685e-17)
(0.861692 0.0462642 1.18742e-17)
(0.801376 0.0293115 -3.57217e-17)
(0.80978 0.0520382 2.72318e-17)
(0.783487 -0.0341694 4.49958e-18)
(0.775126 0.244147 -2.48654e-17)
(0.582626 -0.579788 9.47465e-19)
(0.785674 -0.0104811 -1.24253e-16)
(0.842479 0.0379071 6.42828e-17)
(0.794401 -0.000412834 -5.17401e-16)
(0.826047 0.0269973 2.7629e-16)
(0.800667 0.0150156 5.92685e-16)
(0.842912 0.0374018 3.45309e-16)
(0.780089 0.00749737 2.5714e-16)
(0.872108 0.0509009 2.1104e-16)
(0.788999 -0.00319065 4.40449e-16)
(0.861224 0.0405868 3.72682e-16)
(0.803979 0.00943991 -1.27477e-16)
(0.86966 0.0322265 -2.63227e-16)
(0.822749 0.0234889 -2.78335e-16)
(0.907943 0.0389133 -7.91929e-17)
(0.830512 0.0266966 -6.62765e-17)
(0.881235 0.0428787 7.67545e-17)
(0.832366 0.023049 -2.91829e-17)
(0.884675 0.0402812 -2.43101e-17)
(0.834393 0.0297563 -2.41433e-17)
(0.874117 0.0457738 -1.17609e-16)
(0.814806 0.0278216 -2.78962e-17)
(0.870683 0.0413269 5.51975e-17)
(0.825891 0.0245034 1.45168e-16)
(0.877719 0.0409582 -2.28168e-17)
(0.824302 0.0382573 1.02468e-16)
(0.876504 0.0406429 6.09246e-17)
(0.844198 0.0310091 -7.97325e-19)
(0.886024 0.0423415 -1.67722e-17)
(0.839165 0.0203174 -5.87922e-17)
(0.866335 0.0476689 1.6937e-17)
(0.817926 0.0220697 -2.12529e-18)
(0.797807 0.0577574 -2.41891e-17)
(0.781262 -0.036538 -5.54033e-18)
(0.79965 0.221965 -5.89794e-18)
(0.580134 -0.579173 -8.12173e-18)
(0.821737 0.0302365 6.85171e-17)
(0.792247 -0.00540197 -6.0029e-17)
(0.850899 0.0262304 1.53401e-16)
(0.769857 0.00343069 -4.78255e-16)
(0.815271 0.014169 -1.48063e-16)
(0.791037 0.0253101 2.83257e-16)
(0.854444 0.0359856 1.43279e-16)
(0.801583 0.0289577 -3.45888e-17)
(0.848608 0.0439414 -5.50036e-17)
(0.795579 0.0447287 -2.64992e-16)
(0.8513 0.0466651 -3.18446e-16)
(0.797956 0.0497964 1.20702e-16)
(0.866427 0.0462694 1.72304e-16)
(0.807474 0.0377509 1.15111e-16)
(0.869115 0.0335669 5.88133e-17)
(0.839608 0.0247181 -5.67473e-17)
(0.88839 0.0410695 3.99166e-17)
(0.832392 0.024852 2.16093e-16)
(0.892859 0.0384207 3.60382e-17)
(0.821954 0.0283113 -2.73708e-17)
(0.872709 0.0306801 3.92051e-17)
(0.826327 0.0326443 -1.06038e-16)
(0.870386 0.0410521 2.7997e-17)
(0.813128 0.0401645 1.24847e-16)
(0.875868 0.040052 -3.02958e-17)
(0.825947 0.0310999 -1.89817e-16)
(0.882893 0.0405966 8.97735e-18)
(0.841255 0.0352772 -5.55024e-18)
(0.891292 0.0398085 5.28321e-18)
(0.845117 0.0265672 -6.85534e-17)
(0.864422 0.0477889 2.29198e-17)
(0.795085 0.0267632 -5.16491e-17)
(0.814522 0.050289 2.61992e-17)
(0.754728 -0.0230591 3.78895e-18)
(0.798957 0.223938 -1.85102e-17)
(0.578695 -0.577411 5.88353e-18)
(0.78198 -0.0148347 1.29297e-17)
(0.832041 0.0398035 -3.62657e-17)
(0.796018 0.00328383 6.43722e-17)
(0.815443 0.0292073 3.11751e-16)
(0.800165 0.0163411 -4.67525e-16)
(0.846098 0.0405636 -3.58813e-16)
(0.779796 0.0040646 -1.97268e-16)
(0.86266 0.0575032 -9.79491e-17)
(0.790118 0.0105517 -2.72449e-17)
(0.848125 0.0483358 2.32937e-17)
(0.791655 0.00621528 2.41471e-16)
(0.852543 0.0396126 3.75033e-16)
(0.805258 0.0149185 2.48222e-17)
(0.878494 0.0364583 -1.8419e-16)
(0.822956 0.0351147 -2.27505e-16)
(0.872677 0.0401259 -1.12402e-16)
(0.835556 0.0227733 -6.60918e-17)
(0.886539 0.0398503 9.99554e-17)
(0.833945 0.0270691 -2.31071e-17)
(0.89275 0.0422514 4.1362e-18)
(0.830531 0.0318501 -3.73597e-17)
(0.875349 0.0456124 -1.56966e-16)
(0.813682 0.0308159 -3.44064e-17)
(0.876028 0.0396079 1.56551e-17)
(0.82188 0.0237895 1.39484e-16)
(0.877488 0.0415545 -4.14146e-17)
(0.81865 0.0374901 7.94771e-17)
(0.878912 0.0419218 4.08418e-17)
(0.843328 0.0300742 -1.33616e-17)
(0.890465 0.0418104 4.23457e-18)
(0.839656 0.0209439 -7.2046e-17)
(0.875123 0.0480154 3.63253e-17)
(0.807939 0.021029 5.33881e-17)
(0.810528 0.0532395 1.10722e-17)
(0.758738 -0.0221258 -1.65893e-18)
(0.789799 0.228981 -9.21107e-18)
(0.577025 -0.575911 -7.2413e-18)
(0.825063 0.0345143 1.96078e-16)
(0.790179 -0.000318109 -1.11791e-16)
(0.85523 0.0153739 3.29574e-18)
(0.773724 0.00921437 -1.18053e-16)
(0.813119 0.013701 5.19028e-16)
(0.790538 0.0132899 2.66181e-16)
(0.862092 0.03762 -1.38002e-16)
(0.80397 0.0290021 -9.67243e-17)
(0.84855 0.0408913 2.94999e-17)
(0.79633 0.0312695 -2.6252e-17)
(0.850473 0.0401519 -1.74617e-17)
(0.79092 0.0478069 -2.8987e-16)
(0.84977 0.0457702 -3.31447e-16)
(0.800016 0.0464314 3.71768e-17)
(0.8621 0.0476458 3.39832e-16)
(0.813753 0.0349891 -3.73608e-18)
(0.875455 0.0394974 -5.62483e-17)
(0.833964 0.026916 -4.73859e-17)
(0.890916 0.0388442 -5.96343e-17)
(0.824495 0.0330443 2.37089e-16)
(0.887757 0.0410872 7.51722e-17)
(0.828842 0.025733 -4.44962e-17)
(0.876569 0.0390282 -6.93989e-17)
(0.823516 0.0283481 -1.08967e-16)
(0.872551 0.0406694 2.46229e-17)
(0.810807 0.0351703 1.66863e-16)
(0.873308 0.0396121 -1.04679e-16)
(0.818329 0.0343275 -2.32568e-16)
(0.878053 0.0391221 3.9308e-17)
(0.842221 0.0353308 -1.75311e-17)
(0.890551 0.0430824 2.66377e-17)
(0.842719 0.0247458 -4.63568e-17)
(0.864657 0.0466046 3.86602e-17)
(0.78762 0.0214996 -1.11398e-16)
(0.816885 0.0447897 1.7217e-17)
(0.763383 -0.0264932 -8.88577e-19)
(0.790335 0.230984 -2.6926e-17)
(0.575647 -0.573943 -1.2757e-18)
(0.789579 -0.00251003 -6.47722e-17)
(0.835498 0.0364998 2.45771e-16)
(0.806736 -0.00312749 6.04268e-17)
(0.823745 0.0359925 1.12969e-16)
(0.807468 0.0212232 -3.09039e-17)
(0.859348 0.0438677 1.62264e-16)
(0.797025 -0.00269903 2.11378e-16)
(0.859832 0.0554469 7.43302e-17)
(0.807278 0.0203376 6.77088e-18)
(0.844154 0.04666 -3.51484e-17)
(0.786271 0.0155615 -7.77013e-18)
(0.839167 0.0495684 -4.48641e-17)
(0.78877 0.0122287 2.56351e-16)
(0.849718 0.0444503 3.85257e-16)
(0.799458 0.0203201 1.37943e-16)
(0.869447 0.0287333 -2.59034e-16)
(0.82612 0.0347073 -1.21575e-16)
(0.886181 0.0394792 -5.9086e-17)
(0.830926 0.0218341 -1.42786e-16)
(0.891927 0.0432487 1.874e-16)
(0.835101 0.0208238 -6.68398e-18)
(0.885288 0.0417441 3.07201e-17)
(0.830481 0.0313813 -3.57233e-17)
(0.884712 0.0395309 -9.0623e-17)
(0.810796 0.0310467 -4.57335e-17)
(0.875182 0.0391184 -9.03946e-18)
(0.815746 0.0261317 7.55319e-17)
(0.876648 0.0417788 -4.08131e-17)
(0.819423 0.0380899 3.81361e-17)
(0.882264 0.0423758 4.69261e-17)
(0.840565 0.0328536 1.48191e-17)
(0.891969 0.0425787 3.10563e-17)
(0.837521 0.0265597 -4.67437e-17)
(0.875733 0.0472633 2.8407e-17)
(0.798186 0.026615 6.35073e-17)
(0.81176 0.0560134 -2.61137e-18)
(0.766329 -0.0303562 1.76963e-18)
(0.781481 0.233814 -8.63517e-18)
(0.574212 -0.572072 -2.25233e-18)
(0.834563 0.023299 8.63101e-17)
(0.792771 -0.00276322 -2.69661e-19)
(0.854968 0.0178525 1.74993e-16)
(0.783445 0.0224072 1.26391e-16)
(0.820347 0.0165346 9.74522e-17)
(0.801614 0.00800187 -3.48897e-16)
(0.880315 0.0408887 -2.88827e-16)
(0.819337 0.0371876 -1.99068e-16)
(0.854644 0.0462928 -2.66016e-16)
(0.807768 0.0293683 -1.87551e-16)
(0.845875 0.0369834 5.1297e-17)
(0.796127 0.0392692 -3.06145e-19)
(0.838223 0.0365827 2.01717e-17)
(0.789037 0.0431973 -1.08724e-16)
(0.857316 0.0479977 -1.74494e-16)
(0.801598 0.0402086 2.44052e-18)
(0.85989 0.042723 1.98589e-16)
(0.815847 0.0378376 9.53533e-17)
(0.871797 0.0408699 1.10309e-16)
(0.830552 0.0281842 2.16617e-17)
(0.889104 0.0369841 -1.0449e-16)
(0.827924 0.0313875 1.53765e-16)
(0.890281 0.0405285 7.58562e-17)
(0.822089 0.0247258 -4.37157e-17)
(0.87613 0.0356551 -4.47077e-17)
(0.820697 0.0274096 -1.26138e-16)
(0.868288 0.0378118 2.51094e-17)
(0.809084 0.0343428 1.7478e-16)
(0.874947 0.0371318 -9.84868e-17)
(0.819501 0.0303764 -2.03645e-16)
(0.882216 0.0394271 3.70518e-17)
(0.836471 0.0322611 1.73726e-17)
(0.891943 0.0450407 7.95478e-18)
(0.838706 0.0290619 -7.55238e-17)
(0.864934 0.0489264 1.7751e-17)
(0.783247 0.0194213 -1.04732e-16)
(0.812196 0.0503785 1.4038e-17)
(0.765006 -0.0309718 -2.11047e-18)
(0.811405 0.21158 -2.78198e-17)
(0.572105 -0.571702 -1.33393e-17)
(0.802552 -0.00706591 -3.41486e-16)
(0.843199 0.0405276 1.34896e-16)
(0.810297 -0.0114169 -1.61651e-16)
(0.829914 0.0293374 -3.63642e-17)
(0.814388 0.0135229 -3.17567e-16)
(0.876239 0.0439528 -1.79127e-16)
(0.818798 -0.00317033 -1.15605e-16)
(0.863473 0.0454153 -1.62662e-16)
(0.829128 0.0220244 6.72461e-19)
(0.859586 0.0444204 9.9641e-17)
(0.809753 0.0169224 1.40385e-16)
(0.855299 0.0451546 6.58821e-17)
(0.791616 0.0136529 2.59152e-17)
(0.836329 0.045271 -6.01029e-17)
(0.785488 0.00618201 2.76514e-16)
(0.846656 0.0413383 2.9525e-16)
(0.809523 0.0259508 1.84089e-16)
(0.874148 0.0367913 1.13226e-18)
(0.821724 0.0340366 -7.81843e-17)
(0.870306 0.0383701 -4.17778e-16)
(0.826585 0.0241387 -1.14564e-16)
(0.892101 0.0404395 1.17277e-16)
(0.836654 0.023429 9.15432e-17)
(0.891266 0.0425299 4.71657e-17)
(0.826371 0.0343154 -3.23762e-17)
(0.879473 0.0441157 -1.36345e-16)
(0.807413 0.0307204 -1.0394e-16)
(0.870817 0.0381901 2.77015e-17)
(0.81302 0.0254133 8.44185e-17)
(0.871635 0.0396633 -1.20571e-18)
(0.816172 0.037996 9.249e-18)
(0.885568 0.0427554 5.65721e-17)
(0.834612 0.0304016 2.06461e-17)
(0.89309 0.0424642 9.81231e-19)
(0.833738 0.0286186 -8.37915e-17)
(0.876696 0.0436003 8.15951e-18)
(0.795033 0.0264828 5.17044e-17)
(0.807716 0.0609837 -1.76387e-18)
(0.744143 -0.0174054 5.56727e-19)
(0.803158 0.217295 -3.58841e-18)
(0.570971 -0.569761 -8.36969e-19)
(0.848634 0.0222811 -3.1151e-17)
(0.803984 0.000225339 -1.27134e-16)
(0.857523 0.0306497 -1.3195e-16)
(0.8003 0.0267074 -3.26564e-16)
(0.834839 0.0178841 -1.70086e-16)
(0.819732 0.0106335 -8.29485e-17)
(0.892694 0.041676 2.71793e-16)
(0.830292 0.0398428 3.84692e-16)
(0.865174 0.048483 2.97859e-16)
(0.825536 0.0308973 -2.09493e-18)
(0.867043 0.0421581 -1.96426e-16)
(0.808135 0.0263897 -2.25947e-16)