/*--------------------------------*- C++ -*----------------------------------*\
| =========                 |                                                 |
| \\      /  F ield         | OpenFOAM: The Open Source CFD Toolbox           |
|  \\    /   O peration     | Version:  2206                                  |
|   \\  /    A nd           | Website:  www.openfoam.com                      |
|    \\/     M anipulation  |                                                 |
\*---------------------------------------------------------------------------*/
FoamFile
{
    version     2.0;
    format      ascii;
    arch        "LSB;label=32;scalar=64";
    class       volVectorField;
    location    "180";
    object      UMean;
}
// * * * * * * * * * * * * * * * * * * * * * * * * * * * * * * * * * * * * * //

dimensions      [0 1 -1 0 0 0 0];

internalField   nonuniform List<vector> 
93840
(
(0.718543 -0.758092 7.76855e-18)
(0.80061 0.371369 9.48555e-18)
(0.645023 -0.728324 7.31186e-18)
(0.671142 -0.331487 -1.47917e-18)
(0.815031 0.344793 6.68422e-18)
(0.596436 -0.653136 9.49482e-18)
(1.05562 0.352204 5.82565e-17)
(0.715183 -0.119182 6.47544e-18)
(0.835221 0.320592 3.90915e-18)
(0.637439 -0.534437 1.78736e-17)
(0.883117 -0.0934042 -1.88653e-17)
(0.975718 0.0844663 9.57662e-17)
(0.800239 -0.0994963 1.62408e-17)
(0.894794 0.26519 -5.15239e-17)
(0.657561 -0.389307 -6.89987e-18)
(0.863039 0.0425546 -1.49422e-16)
(0.821297 -0.0548796 -5.24405e-17)
(0.764126 0.0913876 5.32968e-17)
(0.732138 -0.194938 1.50073e-17)
(0.887034 0.145119 -6.71359e-17)
(0.682919 -0.287847 4.74496e-18)
(0.802416 -0.0171757 -1.62621e-17)
(0.892883 0.0846875 -2.02348e-16)
(0.820742 -0.0369968 -8.29757e-17)
(0.978795 0.223826 6.22133e-17)
(0.654968 -0.0866562 -7.13283e-18)
(0.872533 0.0881481 5.38109e-17)
(0.713591 -0.26185 1.79993e-18)
(0.811237 0.0397177 5.42761e-17)
(0.782675 -0.0518777 2.10977e-17)
(0.92713 0.0935432 -1.75114e-16)
(0.843329 -0.0661311 -1.15876e-16)
(0.928672 0.132361 1.13762e-16)
(0.763174 -0.0380727 -1.22654e-17)
(0.868736 0.102304 -3.55209e-17)
(0.739044 -0.239425 -1.19827e-17)
(0.794334 -0.0153354 6.71988e-17)
(0.846609 0.0844742 8.60424e-17)
(0.790821 -0.031635 1.59052e-17)
(0.872524 0.0668822 -1.53279e-16)
(0.784325 -0.0597674 -2.28159e-16)
(0.944919 0.0884318 -6.07936e-17)
(0.765531 -0.00271301 -5.77616e-17)
(0.854458 0.104474 3.90682e-17)
(0.731049 -0.236842 6.8508e-18)
(0.821489 0.0411367 -8.50908e-18)
(0.808785 -0.0300766 7.78753e-17)
(0.870932 0.0887901 1.20071e-16)
(0.779487 -0.0216763 1.56175e-16)
(0.900926 0.0831175 1.02914e-16)
(0.789771 -0.00601356 -2.44736e-17)
(0.8748 0.0273947 1.19638e-16)
(0.791697 -0.029613 2.00712e-17)
(0.865511 0.0971467 -2.5158e-17)
(0.756907 -0.216505 -1.21964e-18)
(0.803787 -0.0144014 1.2378e-16)
(0.848456 0.0561656 5.71251e-18)
(0.797667 -0.0248858 6.26632e-17)
(0.844413 0.0633541 9.1558e-17)
(0.780161 -0.042868 8.89599e-17)
(0.905632 0.0410571 6.07523e-17)
(0.780201 0.017703 -8.81392e-17)
(0.876023 0.0544093 -6.58772e-17)
(0.803446 -0.0110909 -5.98824e-17)
(0.853541 0.0999232 2.10587e-17)
(0.730802 -0.23144 4.20505e-18)
(0.831857 0.0410229 -1.044e-16)
(0.804548 -0.0157949 1.18952e-16)
(0.871479 0.0790312 -4.70639e-18)
(0.818228 -0.00931029 3.11171e-17)
(0.907212 0.0770601 4.22592e-17)
(0.778155 0.00669177 -8.10465e-17)
(0.871058 0.0241018 -1.69638e-17)
(0.805363 0.00926923 -6.78196e-17)
(0.850998 0.0327307 9.152e-17)
(0.811635 -0.0153034 9.82024e-18)
(0.860053 0.0971349 -2.04941e-17)
(0.740546 -0.199591 7.66274e-19)
(0.788164 -0.0134927 -2.3281e-17)
(0.845635 0.0564197 -1.62782e-16)
(0.801427 -0.0146664 1.06297e-16)
(0.865475 0.0524348 3.14976e-17)
(0.825498 -0.0194837 1.93491e-17)
(0.89976 0.0420255 2.83154e-17)
(0.807642 0.012499 1.4226e-16)
(0.883458 0.0300371 1.30765e-16)
(0.807191 0.0131319 -5.6806e-17)
(0.8628 0.0463807 -5.23193e-17)
(0.816187 -0.00791708 -5.07389e-17)
(0.857355 0.100606 1.33174e-17)
(0.731556 -0.219641 3.35695e-18)
(0.828331 0.0409093 -1.12667e-16)
(0.786269 -0.0132387 -3.71748e-17)
(0.863258 0.071471 -1.73006e-16)
(0.798765 -0.00168343 5.97313e-17)
(0.867957 0.0521489 1.04059e-17)
(0.787897 0.00693261 9.82446e-18)
(0.889033 0.0323337 -5.21868e-17)
(0.812601 0.0258755 -7.98576e-17)
(0.844513 0.0251964 -1.20693e-18)
(0.815925 0.00823373 -7.99088e-17)
(0.850982 0.0359637 7.44691e-17)
(0.810648 -0.0098915 1.41864e-17)
(0.86254 0.0924966 -1.76128e-17)
(0.741347 -0.186733 8.32774e-19)
(0.79644 -0.0125582 3.64851e-17)
(0.841332 0.0560833 -1.00827e-16)
(0.788084 -0.00763264 3.25736e-17)
(0.845037 0.0509565 -2.2307e-16)
(0.806751 -0.00670861 -1.39399e-16)
(0.869426 0.0394653 -9.23645e-17)
(0.808285 0.0112098 -7.46223e-17)
(0.885317 0.0312434 -4.00525e-17)
(0.822812 0.0173019 6.36399e-17)
(0.874014 0.0354962 1.45291e-16)
(0.812749 0.0119461 -4.3869e-17)
(0.86193 0.0451424 -3.69784e-17)
(0.817018 -0.0046921 -5.11078e-17)
(0.859142 0.0966738 9.19529e-18)
(0.731237 -0.210111 3.94451e-18)
(0.834077 0.0409154 5.99901e-18)
(0.791974 -0.0111322 2.97929e-17)
(0.8457 0.0656647 -1.20652e-16)
(0.773055 -0.000594596 4.83032e-17)
(0.837109 0.0447844 -6.3558e-17)
(0.773912 0.00910409 -1.38583e-19)
(0.852785 0.0324788 9.66629e-17)
(0.787371 0.023999 4.72972e-17)
(0.860833 0.0239575 -2.38532e-17)
(0.823459 0.021578 -7.17018e-17)
(0.849548 0.0261687 7.10064e-18)
(0.816642 0.00860195 -8.34291e-17)
(0.85028 0.0348454 5.99374e-17)
(0.813306 -0.00598919 1.39994e-17)
(0.863385 0.089731 -1.57163e-17)
(0.741686 -0.176627 1.09183e-18)
(0.802386 -0.01189 8.69511e-17)
(0.844719 0.0546691 4.28772e-17)
(0.790373 -0.00394952 -2.51375e-18)
(0.831425 0.0495027 -1.83826e-16)
(0.792206 -0.00139265 3.03128e-17)
(0.841317 0.0373648 1.13165e-16)
(0.785544 0.00927088 1.26084e-16)
(0.85 0.0318551 1.81581e-18)
(0.809925 0.0158937 -5.01415e-17)
(0.875364 0.0320022 -4.98015e-17)
(0.827214 0.0166812 3.27217e-17)
(0.873352 0.0395959 1.44693e-16)
(0.816171 0.0120377 -3.45647e-17)
(0.860834 0.0430605 -2.92786e-17)
(0.816427 -0.00102295 -5.10934e-17)
(0.859452 0.0937487 5.01737e-18)
(0.733455 -0.201533 4.59573e-18)
(0.841336 0.0397964 -6.68669e-17)
(0.795862 -0.00948274 1.06806e-16)
(0.844723 0.0600773 1.13206e-16)
(0.785702 0.00125095 1.71432e-16)
(0.840623 0.0430806 3.26263e-17)
(0.781771 0.0111971 -9.81781e-17)
(0.838839 0.0327026 -2.56394e-16)
(0.777141 0.0228152 -1.3278e-16)
(0.836778 0.0291532 5.49955e-17)
(0.792188 0.0261314 5.37112e-17)
(0.856109 0.021623 -9.57354e-18)
(0.829515 0.0213637 -6.14455e-17)
(0.850232 0.0266685 1.67586e-17)
(0.816483 0.0105758 -8.34963e-17)
(0.849686 0.0337211 5.09995e-17)
(0.81542 -0.00318494 1.42874e-17)
(0.863308 0.0876156 -1.4188e-17)
(0.742627 -0.168291 3.79553e-19)
(0.811943 -0.0112166 2.85701e-17)
(0.852581 0.0536604 -8.11609e-17)
(0.804789 -0.000251673 8.60556e-17)
(0.840013 0.0492713 1.47357e-16)
(0.811281 0.00364674 1.62825e-16)
(0.850201 0.037754 -3.47029e-17)
(0.799102 0.00945651 7.40377e-18)
(0.841636 0.0336999 5.43565e-17)
(0.791202 0.0143732 1.51617e-16)
(0.841489 0.0306309 3.60216e-17)
(0.809342 0.0159043 -3.82444e-17)
(0.870067 0.0316834 -5.61666e-17)
(0.831646 0.0158825 -3.74169e-19)
(0.872247 0.0398573 1.45061e-16)
(0.818979 0.0132119 -3.06147e-17)
(0.858574 0.041467 -2.82289e-17)
(0.817445 0.00134121 -4.92939e-17)
(0.859319 0.0914731 1.99597e-18)
(0.735538 -0.193916 4.35436e-18)
(0.84144 0.0391923 -5.28125e-17)
(0.806244 -0.00776268 3.12464e-17)
(0.850367 0.0551383 -6.58908e-17)
(0.799341 0.0032722 2.91177e-19)
(0.843715 0.0411867 -2.15697e-17)
(0.794981 0.012487 -7.12144e-17)
(0.845077 0.03362 6.15705e-17)
(0.792244 0.0225145 -1.33357e-17)
(0.834623 0.0309152 -2.36271e-16)
(0.781465 0.0243452 -1.77652e-16)
(0.832724 0.0268182 2.56025e-17)
(0.794697 0.0280466 5.55471e-17)
(0.850703 0.0224382 -3.12184e-18)
(0.834254 0.0216416 -5.54384e-17)
(0.85246 0.0270988 2.44804e-17)
(0.818141 0.0111434 -8.3437e-17)
(0.847248 0.0327795 4.68427e-17)
(0.817416 -0.00113571 1.24409e-17)
(0.862869 0.0861004 -1.29906e-17)
(0.74262 -0.161002 -1.74564e-19)
(0.815549 -0.0111211 -7.27174e-17)
(0.853418 0.0525228 -6.21407e-17)
(0.813569 0.00386565 3.60167e-17)
(0.844593 0.0484002 -6.94788e-17)
(0.819702 0.00779176 -5.8613e-17)
(0.849092 0.0374144 1.27785e-16)
(0.806129 0.0103849 2.98426e-16)
(0.84842 0.03357 1.81155e-16)
(0.803995 0.0129104 2.91608e-17)
(0.840967 0.0323245 2.82343e-17)
(0.794956 0.0148455 1.43832e-16)
(0.83657 0.030099 5.42239e-17)
(0.80909 0.0165336 -2.57101e-17)
(0.865303 0.0329569 -5.51802e-17)
(0.833636 0.0163457 -1.90794e-17)
(0.871442 0.0396338 1.44902e-16)
(0.821645 0.0145406 -2.60951e-17)
(0.855812 0.0396021 -2.15702e-17)
(0.818818 0.00316416 -4.45527e-17)
(0.858722 0.0897873 -1.18147e-18)
(0.738204 -0.186827 5.25059e-18)
(0.84266 0.039834 3.18165e-16)
(0.812634 -0.00572165 -3.21081e-17)
(0.850164 0.0510641 -1.07312e-16)
(0.811668 0.00517618 -5.05871e-17)
(0.849907 0.0399576 -9.07405e-17)
(0.811197 0.0144232 -2.94717e-17)
(0.853314 0.0333392 -7.9356e-17)
(0.801853 0.0224377 -1.46739e-16)
(0.841074 0.031379 5.33725e-17)
(0.796235 0.0251867 3.30218e-17)
(0.833292 0.0307591 -2.04685e-16)
(0.785191 0.0254273 -1.93353e-16)
(0.828853 0.0251328 5.06894e-18)
(0.798841 0.0285278 5.137e-17)
(0.848202 0.0223567 -1.96294e-18)
(0.835161 0.0215843 -5.48674e-17)
(0.85213 0.028549 2.98069e-17)
(0.820371 0.0124701 -8.27621e-17)
(0.84623 0.0322194 3.84507e-17)
(0.819722 -2.16657e-05 1.09044e-17)
(0.861933 0.0846998 -1.30514e-17)
(0.741616 -0.154391 4.45253e-19)
(0.814039 -0.0105872 -3.74715e-16)
(0.857243 0.0511756 1.86259e-16)
(0.825965 0.0078071 -9.31677e-17)
(0.852098 0.0479294 -1.78226e-16)
(0.832074 0.0107343 1.26551e-17)
(0.857134 0.0371495 -3.48517e-17)
(0.821248 0.011559 -1.15855e-16)
(0.852135 0.0325778 -1.36602e-16)
(0.809092 0.0138037 1.91027e-16)
(0.848943 0.0319157 2.07401e-16)
(0.807542 0.0142606 5.12193e-17)
(0.837787 0.03188 1.60159e-17)
(0.797427 0.0157702 1.33719e-16)
(0.833504 0.030154 6.47722e-17)
(0.80811 0.0162295 -1.39493e-17)
(0.86343 0.0338376 -5.08492e-17)
(0.836074 0.0169241 -3.3075e-17)
(0.869919 0.038804 1.44101e-16)
(0.822516 0.0159668 -2.27681e-17)
(0.853294 0.038824 -1.96661e-17)
(0.820517 0.00430923 -4.42744e-17)
(0.857451 0.0884019 -3.04296e-18)
(0.742134 -0.179923 4.7655e-18)
(0.847359 0.0401101 3.59326e-17)
(0.814893 -0.00349774 -4.01973e-16)
(0.853465 0.0474822 1.76329e-16)
(0.826746 0.00709048 8.74582e-17)
(0.855631 0.039199 3.09689e-17)
(0.824804 0.0162139 6.51397e-17)
(0.858428 0.0332134 -1.0393e-16)
(0.815431 0.0228519 -4.97962e-17)
(0.850561 0.0305547 -3.80429e-17)
(0.804574 0.0255888 -1.57494e-16)
(0.840751 0.0308305 2.77107e-17)
(0.801761 0.0263879 5.81979e-17)
(0.829141 0.0292669 -1.80306e-16)
(0.788831 0.0271646 -1.9712e-16)
(0.825681 0.0247471 -9.19804e-18)
(0.800668 0.0287855 4.68067e-17)
(0.843846 0.0225708 1.52718e-18)
(0.837406 0.0217172 -5.45502e-17)
(0.851979 0.0292304 3.45316e-17)
(0.822478 0.0129006 -8.13979e-17)
(0.84418 0.0320026 3.453e-17)
(0.821782 0.000589556 1.09789e-17)
(0.860594 0.0834161 -1.18933e-17)
(0.740523 -0.148022 3.33993e-18)
(0.818067 -0.00939867 6.25105e-17)
(0.863269 0.0502685 1.3879e-16)
(0.838118 0.0104251 -2.67061e-16)
(0.858094 0.0467737 1.99593e-16)
(0.843991 0.0135752 1.0624e-16)
(0.865377 0.0372418 -7.17746e-17)
(0.835038 0.0130205 -1.28134e-16)
(0.859426 0.0322597 -4.43927e-17)
(0.826682 0.0151297 -9.76311e-17)
(0.854302 0.0296689 -1.85219e-16)
(0.812832 0.0157769 1.05806e-16)
(0.840703 0.0293967 2.10329e-16)
(0.812044 0.0155281 6.48525e-17)
(0.837297 0.0310174 7.82951e-18)
(0.799965 0.0170927 1.12918e-16)
(0.829963 0.0276513 6.94811e-17)
(0.808031 0.0169629 8.29843e-20)
(0.858234 0.0338295 -4.46341e-17)
(0.837768 0.0169735 -4.57772e-17)
(0.867318 0.0376623 1.38995e-16)
(0.82502 0.0167135 -2.03197e-17)
(0.851028 0.0383641 -1.71982e-17)
(0.822005 0.00481809 -4.46301e-17)
(0.858217 0.0865749 -5.41878e-18)
(0.754658 -0.158753 1.82373e-18)
(0.84654 0.0402145 1.35548e-16)
(0.815572 -0.00138768 6.7041e-17)
(0.855063 0.0453042 1.83516e-16)
(0.840483 0.010116 -3.8027e-16)
(0.862098 0.0384694 -1.83174e-16)
(0.839366 0.0178697 -1.3504e-16)
(0.867576 0.0334973 -6.42994e-17)
(0.833598 0.0243377 8.9226e-17)
(0.858212 0.0314377 -5.86797e-17)
(0.819533 0.0256912 -5.77569e-17)
(0.84924 0.0283835 -2.57583e-17)
(0.81372 0.027404 -1.27695e-16)
(0.836483 0.0305607 1.77453e-17)
(0.804024 0.0274244 7.45698e-17)
(0.828338 0.0287174 -1.6023e-16)
(0.793378 0.026964 -1.87393e-16)
(0.825346 0.0267013 -1.69508e-17)
(0.804153 0.0284529 3.92316e-17)
(0.842092 0.0246511 -1.99349e-18)
(0.839171 0.0216731 -5.20435e-17)
(0.85219 0.0304174 4.13421e-17)
(0.824257 0.0140843 -8.03416e-17)
(0.843212 0.0319876 3.10464e-17)
(0.823805 0.000863192 9.01749e-18)
(0.863801 0.0803447 -1.16623e-17)
(0.762348 -0.157932 3.84647e-18)
(0.814817 -0.00865556 1.32228e-16)
(0.85774 0.0492409 1.55461e-16)
(0.835245 0.0126869 4.24518e-17)
(0.854426 0.0444331 3.17561e-16)
(0.845443 0.0157263 -8.67006e-17)
(0.863235 0.0372653 1.46434e-17)
(0.837123 0.0147086 2.13336e-16)
(0.859114 0.0318014 3.01986e-16)
(0.837566 0.0156705 -6.58562e-18)
(0.85992 0.0301655 -2.56381e-17)
(0.830651 0.0178329 -7.89591e-17)
(0.849499 0.0296462 -2.04626e-16)
(0.814367 0.0165397 6.23304e-17)
(0.840341 0.0285771 2.03706e-16)
(0.813208 0.0174036 7.90786e-17)
(0.834228 0.0306691 1.87144e-18)
(0.801493 0.0185897 1.00427e-16)
(0.826584 0.0278956 7.32749e-17)
(0.807277 0.0169164 1.16752e-17)
(0.8527 0.031804 -3.28398e-17)
(0.838371 0.0172034 -5.77936e-17)
(0.864639 0.036864 1.33436e-16)
(0.826229 0.0173885 -1.704e-17)
(0.850059 0.037955 -1.52428e-17)
(0.824477 0.00504442 -3.94807e-17)
(0.848753 0.0850885 -7.47182e-18)
(0.755189 -0.160529 2.15702e-18)
(0.837099 0.0401776 -5.17806e-16)
(0.809255 0.000318296 2.66951e-17)
(0.848397 0.0433016 1.20902e-16)
(0.841204 0.013764 -4.45658e-17)
(0.856368 0.0373484 3.23482e-16)
(0.837254 0.0189849 3.53708e-16)
(0.857453 0.0327362 3.24924e-16)
(0.831923 0.0250191 5.59926e-17)
(0.8616 0.0315404 -6.07756e-17)
(0.835619 0.0263888 8.79654e-17)
(0.858952 0.0302402 -3.60949e-17)
(0.822608 0.027133 -5.98681e-17)
(0.847841 0.0286238 -2.14994e-17)
(0.814693 0.0278633 -1.27846e-16)
(0.836699 0.0299795 1.34903e-17)
(0.808245 0.0272462 8.51411e-17)
(0.827963 0.0284616 -1.44149e-16)
(0.79458 0.0274553 -1.87669e-16)
(0.823388 0.0263224 -2.35775e-17)
(0.806534 0.0277121 3.43329e-17)
(0.843531 0.0272067 -6.48476e-18)
(0.840623 0.0220902 -5.57893e-17)
(0.854513 0.0308302 4.76064e-17)
(0.825341 0.0152083 -7.77728e-17)
(0.842312 0.0328723 2.86693e-17)
(0.829131 0.00161553 6.9096e-18)
(0.851353 0.0848007 -9.78896e-18)
(0.753238 -0.151907 3.71543e-18)
(0.807572 -0.00784711 4.73318e-16)
(0.846734 0.0480852 -3.9511e-16)
(0.830261 0.0146507 5.01743e-17)
(0.843882 0.0423555 1.86641e-16)
(0.840281 0.0172824 -9.73825e-17)
(0.854211 0.0370929 -1.68464e-16)
(0.831356 0.0163048 -2.98087e-16)
(0.850336 0.0315519 -4.0069e-16)
(0.835942 0.016117 -6.99887e-17)
(0.85807 0.0302889 2.90423e-16)
(0.838242 0.0174506 3.98939e-17)
(0.858645 0.0295819 -1.41687e-17)
(0.831839 0.0177864 -6.32161e-17)
(0.851244 0.0294631 -2.10075e-16)
(0.816644 0.0188569 2.11134e-17)
(0.838005 0.0285753 1.95287e-16)
(0.813895 0.0178706 8.985e-17)
(0.834335 0.0299314 -7.64848e-18)
(0.803219 0.0190505 9.3154e-17)
(0.825475 0.0291923 7.11612e-17)
(0.806933 0.017602 1.78657e-17)
(0.850154 0.032258 -2.51428e-17)
(0.837957 0.0174901 -6.33854e-17)
(0.864963 0.0362127 1.30715e-16)
(0.826835 0.0177413 -1.33563e-17)
(0.849066 0.0375342 -1.29611e-17)
(0.828374 0.002732 -3.69986e-17)
(0.851449 0.0867751 -1.03202e-17)
(0.750676 -0.154407 2.54461e-18)
(0.830094 0.0399239 -6.54171e-17)
(0.800585 0.00177188 5.22297e-16)
(0.839574 0.0411421 -3.64089e-16)
(0.834256 0.0171718 -1.28275e-16)
(0.845456 0.0362292 7.16406e-17)
(0.829888 0.0202495 1.59216e-16)
(0.848269 0.0321169 9.42447e-17)
(0.829801 0.0258664 1.51566e-16)
(0.851808 0.0314183 3.69196e-16)
(0.830262 0.026998 1.45734e-16)
(0.859988 0.0308389 -5.34509e-17)
(0.836213 0.0271974 8.88582e-17)
(0.85908 0.0298888 -2.16026e-17)
(0.824666 0.0276043 -6.09115e-17)
(0.847685 0.0285275 -1.84651e-17)
(0.817434 0.0265805 -1.16183e-16)
(0.836045 0.0297631 6.60867e-18)
(0.80971 0.0274802 9.2229e-17)
(0.828144 0.0284831 -1.2345e-16)
(0.796245 0.0276444 -1.85671e-16)
(0.822276 0.0263569 -2.62236e-17)
(0.807022 0.0267479 3.29439e-17)
(0.843184 0.0275323 -5.19862e-18)
(0.839923 0.022581 -5.79948e-17)
(0.856168 0.031266 5.2529e-17)
(0.825893 0.0160225 -7.79337e-17)
(0.841821 0.0345206 2.473e-17)
(0.827032 0.000904384 7.13399e-18)
(0.854475 0.0832546 -1.03801e-17)
(0.752105 -0.146291 3.71468e-18)
(0.800203 -0.00714163 -2.10141e-16)
(0.830708 0.0467099 -2.09814e-16)
(0.818652 0.0163345 3.56706e-16)
(0.831546 0.0393833 -4.64683e-16)
(0.834461 0.0186292 -5.24192e-16)
(0.844173 0.036915 -5.10504e-16)
(0.826413 0.0177728 -4.76045e-16)
(0.841593 0.031568 -3.31597e-16)
(0.828862 0.016508 -3.16627e-16)
(0.848202 0.0299922 -4.64001e-16)
(0.834521 0.0173149 -1.70758e-16)
(0.857156 0.0294064 2.63158e-16)
(0.838639 0.0180334 6.29424e-17)
(0.858853 0.0292421 -3.57566e-18)
(0.832017 0.0184182 -4.99524e-17)
(0.851284 0.0295026 -2.1205e-16)
(0.817198 0.0190976 -4.43959e-18)
(0.838635 0.0286347 1.8727e-16)
(0.814631 0.0185171 9.92249e-17)
(0.831934 0.0289639 -2.80287e-17)
(0.804213 0.018968 7.48814e-17)
(0.825047 0.0299042 6.78885e-17)
(0.807074 0.0177783 2.12081e-17)
(0.849566 0.0325579 -2.0373e-17)
(0.837287 0.0178265 -6.92417e-17)
(0.863978 0.0349049 1.18483e-16)
(0.827723 0.0178164 -1.46873e-17)
(0.848302 0.0384804 -1.12942e-17)
(0.827353 0.00219083 -3.61891e-17)
(0.855162 0.0845006 -9.70084e-18)
(0.750977 -0.149555 2.82908e-18)
(0.829284 0.0389998 3.82211e-16)
(0.788871 0.00344287 -1.67443e-16)
(0.824215 0.0389424 -1.89006e-16)
(0.821495 0.0200365 6.79641e-16)
(0.833505 0.0350753 3.44839e-16)
(0.822301 0.0216829 1.51075e-16)
(0.838211 0.0314364 1.89435e-16)
(0.82018 0.0265574 3.6237e-16)
(0.839523 0.0307036 2.54334e-16)
(0.826156 0.0271022 1.37322e-16)
(0.85069 0.0303491 3.57921e-16)
(0.829156 0.0279637 1.83425e-16)
(0.858838 0.0304997 -4.50119e-17)
(0.836688 0.0275763 8.85452e-17)
(0.859263 0.0297286 -1.20943e-17)
(0.827575 0.0273358 -5.95182e-17)
(0.847348 0.0287668 -1.63771e-17)
(0.818261 0.0269005 -1.15075e-16)
(0.835635 0.0296345 9.24486e-19)
(0.811294 0.0275173 9.99709e-17)
(0.832224 0.0290432 -9.25449e-17)
(0.798446 0.0275615 -1.76451e-16)
(0.820965 0.0262737 -3.0886e-17)
(0.806319 0.0264135 3.2125e-17)
(0.843561 0.027545 -3.78608e-18)
(0.839747 0.0228417 -6.02549e-17)
(0.858809 0.0321226 6.40313e-17)
(0.827348 0.0165826 -7.16122e-17)
(0.841654 0.0356086 2.41568e-17)
(0.824962 0.00107046 7.19081e-18)
(0.856279 0.0820553 -1.20279e-17)
(0.752788 -0.141554 3.74679e-18)
(0.801443 -0.00645837 -4.02622e-16)
(0.82469 0.0440518 3.41883e-16)
(0.814556 0.0182054 -1.1034e-16)
(0.821336 0.0386794 -3.94036e-16)
(0.826936 0.0198797 4.58864e-16)
(0.833123 0.0363739 4.01213e-16)
(0.818282 0.0188748 4.2756e-16)
(0.828205 0.0315941 1.15619e-16)
(0.820369 0.017203 -3.10085e-16)
(0.839014 0.0308503 -3.19588e-16)
(0.827717 0.0177748 -2.91673e-16)
(0.847249 0.0300878 -4.3115e-16)
(0.833892 0.0178673 -2.23362e-16)
(0.855802 0.0294112 2.32355e-16)
(0.838647 0.0187095 7.86588e-17)
(0.858629 0.0289707 4.72815e-18)
(0.832991 0.0183015 -3.91949e-17)
(0.851167 0.0293218 -2.0927e-16)
(0.818389 0.0192948 -2.43136e-17)
(0.838355 0.0284813 1.75004e-16)
(0.814727 0.0195843 1.06446e-16)
(0.829711 0.0289326 -2.60299e-17)
(0.804817 0.0189317 6.48655e-17)
(0.825427 0.0302563 6.26099e-17)
(0.806379 0.0183077 2.41658e-17)
(0.848564 0.0326744 -1.71961e-17)
(0.836755 0.0186062 -7.41769e-17)
(0.863625 0.0346869 1.15765e-16)
(0.829071 0.0172433 -1.57015e-17)
(0.848872 0.0389616 -1.17689e-17)
(0.826374 0.00229339 -3.373e-17)
(0.853426 0.0848657 -1.16804e-17)
(0.752872 -0.144884 -1.7153e-18)
(0.826047 0.0376371 3.98017e-17)
(0.782274 0.00569246 -3.67985e-16)
(0.82023 0.0369492 3.57278e-16)
(0.817089 0.0220739 4.51896e-17)
(0.828184 0.0345073 -7.97951e-16)
(0.818684 0.0230843 -6.12317e-16)
(0.829835 0.031061 -4.43017e-16)
(0.813917 0.0272069 -4.6892e-16)
(0.830287 0.0299532 -2.03279e-16)
(0.816698 0.0275944 2.46176e-16)
(0.838353 0.0296277 2.62999e-16)
(0.824391 0.0272277 1.26108e-16)
(0.851247 0.0285761 2.98964e-16)
(0.828052 0.0282051 1.93866e-16)
(0.857618 0.0299953 -2.7895e-17)
(0.838094 0.0282108 8.74455e-17)
(0.858338 0.0299453 -5.13468e-18)
(0.829209 0.0279088 -5.93673e-17)
(0.847708 0.0288477 -1.99855e-17)
(0.819167 0.0272439 -1.15581e-16)
(0.835464 0.0299389 4.95572e-19)
(0.812131 0.0274389 1.02847e-16)
(0.832089 0.02897 -8.152e-17)
(0.799907 0.0276954 -1.73758e-16)
(0.821723 0.0265941 -2.82717e-17)
(0.806217 0.0259022 3.1667e-17)
(0.843277 0.0277759 -2.02722e-18)
(0.839422 0.02278 -6.51055e-17)
(0.859157 0.0325491 6.61682e-17)
(0.828297 0.017044 -7.05501e-17)
(0.842428 0.0358989 2.13546e-17)
(0.826569 0.000323586 7.95174e-18)
(0.85484 0.0817248 -1.18738e-17)
(0.754783 -0.137263 7.61746e-18)
(0.797258 -0.00584297 -5.2211e-17)
(0.818938 0.0410727 1.01071e-16)
(0.809116 0.0196829 -3.62434e-16)
(0.811979 0.0377107 4.09174e-16)
(0.82069 0.0213126 6.62722e-16)
(0.826097 0.0356272 3.77571e-16)
(0.813582 0.0200091 2.83486e-16)
(0.820932 0.0316433 3.75839e-16)
(0.814737 0.0182592 5.94355e-16)
(0.826619 0.0308873 3.32927e-16)
(0.818363 0.0179227 -2.0852e-16)
(0.837375 0.0302719 -3.05596e-16)
(0.826518 0.0194998 -2.73473e-16)
(0.845674 0.0296926 -4.28482e-16)
(0.832786 0.0196312 -2.05524e-16)
(0.855226 0.0289112 2.12408e-16)
(0.839447 0.0186141 9.3545e-17)
(0.858182 0.0287735 1.21005e-17)
(0.833777 0.0182282 -2.92494e-17)
(0.850917 0.0290923 -2.0425e-16)
(0.819797 0.0197059 -3.88589e-17)
(0.83796 0.0283961 1.64717e-16)
(0.815182 0.0204555 1.13052e-16)
(0.829938 0.0289771 -2.75343e-17)
(0.80551 0.0190263 5.24668e-17)
(0.824119 0.0304524 5.54555e-17)
(0.806051 0.0192854 2.64243e-17)
(0.847765 0.0325462 -1.29281e-17)
(0.837197 0.019286 -7.60187e-17)
(0.863314 0.0350062 1.1452e-16)
(0.829366 0.0173253 -1.39386e-17)
(0.847308 0.0399504 -8.96626e-18)
(0.827277 0.00132162 -3.75538e-17)
(0.8589 0.0790134 -1.28215e-17)
(0.754652 -0.140918 -3.38734e-19)
(0.823296 0.036293 1.29589e-16)
(0.779013 0.00799465 -7.30114e-17)
(0.819523 0.0357973 1.11915e-16)
(0.815951 0.0241207 -6.61778e-16)
(0.824778 0.0342493 -1.68058e-16)
(0.815921 0.0241807 2.40759e-16)
(0.823172 0.0306321 1.67672e-16)
(0.811215 0.0281334 3.30816e-17)
(0.823702 0.0288003 -1.81833e-16)
(0.810186 0.027694 -4.59886e-16)
(0.829519 0.0289369 -3.00095e-16)
(0.815435 0.0278145 1.82422e-16)
(0.837686 0.0289433 2.62665e-16)
(0.823872 0.0276366 1.07286e-16)
(0.848657 0.028153 2.81883e-16)
(0.831485 0.0273172 1.4732e-16)
(0.855509 0.0300737 -2.23087e-17)
(0.838717 0.0285223 8.46759e-17)
(0.857997 0.0300249 1.77892e-19)
(0.830315 0.0286103 -5.77491e-17)
(0.847322 0.0290399 -2.1978e-17)
(0.819605 0.0274537 -1.16181e-16)
(0.835373 0.0299568 -3.0397e-18)
(0.813413 0.0269893 1.0789e-16)
(0.831872 0.0290181 -6.91832e-17)
(0.801678 0.0278459 -1.65475e-16)
(0.821831 0.0277184 -2.18071e-17)
(0.806566 0.0251711 3.1236e-17)
(0.842612 0.0278422 3.29458e-20)
(0.83978 0.0225134 -6.72804e-17)
(0.859346 0.0327884 6.75713e-17)
(0.828819 0.0177446 -6.85434e-17)
(0.843143 0.0368864 1.683e-17)
(0.820972 0.00379435 9.58198e-18)
(0.859852 0.0766541 -1.18113e-17)
(0.75667 -0.133746 1.17046e-17)
(0.795651 -0.00566147 9.11741e-17)
(0.81058 0.0376572 1.95846e-16)
(0.803713 0.0209848 -1.52381e-18)
(0.811192 0.0368437 2.46172e-16)
(0.818541 0.0225119 -4.88979e-16)
(0.822146 0.0350137 -4.36084e-16)
(0.812165 0.021108 -2.46071e-16)
(0.817988 0.0315679 -1.92717e-16)
(0.811715 0.019374 -1.03088e-16)
(0.820322 0.0310649 1.81123e-16)
(0.8133 0.0188459 5.56488e-16)
(0.825284 0.0307476 4.06581e-16)
(0.816787 0.019188 -1.33926e-16)
(0.835974 0.0293787 -2.87225e-16)
(0.826324 0.0202322 -2.41823e-16)
(0.845249 0.0299579 -3.99656e-16)
(0.831338 0.0198762 -2.09758e-16)
(0.854183 0.0287224 1.90068e-16)
(0.840212 0.0187791 1.0208e-16)
(0.857842 0.0286004 1.91595e-17)
(0.834883 0.0190209 -2.40603e-17)
(0.850417 0.0291727 -1.83606e-16)
(0.820353 0.0201523 -5.76562e-17)
(0.836387 0.0288412 1.40905e-16)
(0.815505 0.0207717 1.17488e-16)
(0.829741 0.0291356 -2.60575e-17)
(0.806663 0.019216 3.74659e-17)
(0.82404 0.0299264 5.06499e-17)
(0.805582 0.0197321 2.83744e-17)
(0.846147 0.032663 -1.19492e-17)
(0.837646 0.0196798 -8.2948e-17)
(0.863154 0.0351308 1.12574e-16)
(0.829453 0.017418 -1.05296e-17)
(0.849781 0.0391313 -4.38273e-18)
(0.823195 0.00541394 -3.33562e-17)
(0.856014 0.0796894 -1.39983e-17)
(0.756544 -0.137084 1.1569e-18)
(0.823977 0.0349168 1.07204e-16)
(0.779891 0.00940082 -1.25839e-17)
(0.815963 0.0351613 4.61295e-17)
(0.812291 0.0256153 -1.64018e-17)
(0.820007 0.0340293 6.11535e-16)
(0.815639 0.0254524 3.13235e-16)
(0.824041 0.0307134 -7.96147e-17)
(0.818065 0.0293468 -5.86236e-17)
(0.824595 0.0281465 1.30239e-16)
(0.80933 0.0281825 1.18465e-16)
(0.823534 0.0278449 -8.89614e-17)
(0.809742 0.0278907 -4.17922e-16)
(0.828654 0.028186 -3.4657e-16)
(0.816037 0.02781 1.31218e-16)
(0.836451 0.0286902 2.54641e-16)
(0.823983 0.0281974 8.85059e-17)
(0.847132 0.0276419 2.40795e-16)
(0.83204 0.0277621 1.06055e-16)
(0.853376 0.0302414 -1.34009e-17)
(0.839888 0.0287285 8.50012e-17)
(0.857371 0.0299942 3.88202e-18)
(0.831509 0.0279687 -5.31394e-17)
(0.84866 0.0288012 -3.89825e-17)
(0.820638 0.0271729 -1.12272e-16)
(0.836874 0.0295507 8.54935e-18)
(0.814027 0.0271144 1.14055e-16)
(0.830798 0.0292565 -6.14787e-17)
(0.802894 0.027932 -1.56606e-16)
(0.820845 0.0277845 -2.8062e-17)
(0.806891 0.0250696 2.7627e-17)
(0.841591 0.0280428 4.57322e-18)
(0.839917 0.0223231 -6.67751e-17)
(0.859511 0.0328365 6.87218e-17)
(0.829885 0.018013 -6.91928e-17)
(0.844474 0.0358104 1.25881e-17)
(0.8241 0.00354927 5.66439e-18)
(0.857099 0.0775919 -1.2383e-17)
(0.758637 -0.13011 5.80723e-18)
(0.80385 -0.00514594 -2.11113e-16)
(0.819919 0.0364554 9.96107e-18)
(0.814453 0.0227974 -8.21108e-17)
(0.818309 0.0360736 8.91452e-17)
(0.821487 0.0237128 -5.57785e-17)
(0.828313 0.0348541 1.76162e-16)
(0.825524 0.0226356 2.06246e-16)
(0.832738 0.0318782 1.03725e-16)
(0.822075 0.0206956 4.74954e-18)
(0.821276 0.031175 -1.59218e-16)
(0.811545 0.0197055 -1.62087e-16)
(0.819964 0.0305698 9.26235e-17)
(0.812732 0.0191644 5.04946e-16)
(0.824263 0.0305488 4.36854e-16)
(0.815862 0.019728 -8.41733e-17)
(0.834747 0.0287308 -2.67777e-16)
(0.82709 0.0200685 -2.17686e-16)
(0.843785 0.0293413 -3.72285e-16)
(0.83283 0.0196807 -1.97085e-16)
(0.853424 0.0291938 1.59346e-16)
(0.839848 0.0189665 1.09903e-16)
(0.8575 0.0287697 2.46522e-17)
(0.834518 0.0194369 -1.64326e-17)
(0.850094 0.0293187 -1.79055e-16)
(0.820894 0.0208091 -7.22329e-17)
(0.835968 0.0288033 1.32935e-16)
(0.816372 0.0213013 1.21023e-16)
(0.830064 0.0292952 -2.46964e-17)
(0.806632 0.0202521 1.80543e-17)
(0.823939 0.0302929 4.55449e-17)
(0.805947 0.0197864 2.99721e-17)
(0.845147 0.0327584 -7.81263e-18)
(0.837852 0.0201293 -8.68651e-17)
(0.863666 0.0351842 1.09806e-16)
(0.829847 0.0177315 -1.42133e-17)
(0.848192 0.0394957 -8.29373e-18)
(0.826126 0.00382533 -2.62244e-17)
(0.853554 0.0798902 -1.51133e-17)
(0.758636 -0.13319 6.41514e-18)
(0.832388 0.0334945 2.37725e-18)
(0.791977 0.0102789 -1.15972e-16)
(0.822709 0.0345729 1.64777e-16)
(0.819211 0.0272562 1.71043e-16)
(0.82813 0.0341426 1.16228e-16)
(0.82926 0.0272129 -3.60703e-16)
(0.839377 0.0311896 -3.75013e-16)
(0.836019 0.0307409 -2.039e-16)
(0.835387 0.0281658 -2.25636e-16)
(0.819093 0.0287943 -1.63471e-16)
(0.826108 0.0273979 7.96625e-17)
(0.809092 0.0283523 1.3242e-16)
(0.822972 0.0274632 -3.53671e-17)
(0.809126 0.0279255 -3.7744e-16)
(0.827663 0.0280497 -3.53437e-16)
(0.816727 0.0275393 9.43677e-17)
(0.834576 0.0286792 2.50215e-16)
(0.823471 0.0283799 7.92022e-17)
(0.845502 0.0281088 2.18502e-16)
(0.831726 0.0276495 1.0493e-16)
(0.854401 0.0294353 4.51332e-18)
(0.840119 0.0289321 8.44551e-17)
(0.857463 0.0299276 9.4388e-18)
(0.832439 0.0281234 -5.06401e-17)
(0.848434 0.0286158 -3.96849e-17)
(0.821372 0.0270022 -1.12106e-16)
(0.836237 0.0295906 3.51104e-18)
(0.815019 0.0267775 1.14949e-16)
(0.830627 0.0294068 -5.33e-17)
(0.80411 0.0272197 -1.39121e-16)
(0.820532 0.0278875 -2.72965e-17)
(0.806401 0.0252514 2.94885e-17)
(0.841021 0.0286293 6.09548e-18)
(0.839166 0.0224063 -6.82639e-17)
(0.85997 0.0329133 6.76432e-17)
(0.830376 0.0184812 -5.84324e-17)
(0.843534 0.0367974 1.56985e-17)
(0.825166 0.00264123 5.71523e-19)
(0.862115 0.0723211 -1.66461e-17)
(0.760713 -0.127091 -3.51136e-18)
(0.815112 -0.00456577 -2.84092e-16)
(0.83184 0.035207 -1.79442e-17)
(0.820789 0.0246893 -8.07382e-17)
(0.824454 0.0356198 1.06414e-16)
(0.83224 0.0248315 -2.03961e-16)
(0.844962 0.0350085 -1.09483e-16)
(0.844885 0.0242722 -1.4067e-16)
(0.8482 0.0322737 -1.04474e-16)
(0.836974 0.0216844 2.50874e-17)
(0.836998 0.031847 1.05182e-16)
(0.824893 0.0211727 5.15238e-17)
(0.823888 0.0306601 -1.2518e-16)
(0.812217 0.019977 -1.67967e-16)
(0.819762 0.030319 3.91277e-17)
(0.811551 0.0204801 4.15391e-16)
(0.823926 0.0299736 4.39282e-16)
(0.815019 0.0201379 -4.48169e-17)
(0.833984 0.0283984 -2.55617e-16)
(0.82591 0.0207166 -1.90433e-16)
(0.842851 0.0292043 -3.31903e-16)
(0.83293 0.0203343 -2.08738e-16)
(0.851529 0.0292425 1.39485e-16)
(0.840602 0.0189085 1.16871e-16)
(0.857209 0.0286367 2.94091e-17)
(0.835327 0.0197629 -1.1667e-17)
(0.849565 0.0293411 -1.7444e-16)
(0.821657 0.0211836 -8.55783e-17)
(0.835756 0.0291012 1.24495e-16)
(0.816479 0.0213893 1.27186e-16)
(0.830452 0.0294384 -2.26444e-17)
(0.806834 0.0205422 9.43407e-18)
(0.824071 0.0306559 4.4019e-17)
(0.805723 0.0199034 3.14995e-17)
(0.844794 0.0323914 -4.14087e-18)
(0.837409 0.0206041 -9.01841e-17)
(0.864185 0.0352425 1.14625e-16)
(0.829893 0.0181192 -1.25806e-17)
(0.847895 0.0399636 -6.62089e-18)
(0.820741 0.00734788 -2.47121e-17)
(0.858304 0.0753281 -1.28824e-17)
(0.760401 -0.130063 9.6347e-18)
(0.840343 0.0325332 1.16902e-16)
(0.808644 0.0110987 -3.17673e-16)
(0.833561 0.0348428 -9.17314e-17)
(0.833136 0.0287353 -3.42868e-16)
(0.843422 0.034397 -2.86508e-16)
(0.846666 0.0289357 -2.29844e-16)
(0.852455 0.0313731 1.61939e-16)
(0.846585 0.0315642 3.599e-16)
(0.846371 0.0280499 1.9952e-16)
(0.836751 0.0301903 -5.87755e-17)
(0.838851 0.0274222 -2.04536e-16)